  54  54   0   0
  0.1664472E+02  0.1030881E-08  0.9343716E-09  0.9391106E-09  0.5000000E-15
  1.000000000000000E-004
  CAR 
 unknown system                          
     12.78133705    -60.57514350  301      7.09712343      1.00000000
    -60.575  0.0000E+00  0.0000E+00
    -60.331  0.0000E+00  0.0000E+00
    -60.086  0.0000E+00  0.0000E+00
    -59.842  0.0000E+00  0.0000E+00
    -59.597  0.0000E+00  0.0000E+00
    -59.353  0.0000E+00  0.0000E+00
    -59.108  0.0000E+00  0.0000E+00
    -58.863  0.0000E+00  0.0000E+00
    -58.619  0.0000E+00  0.0000E+00
    -58.374  0.0000E+00  0.0000E+00
    -58.130  0.0000E+00  0.0000E+00
    -57.885  0.0000E+00  0.0000E+00
    -57.641  0.0000E+00  0.0000E+00
    -57.396  0.8504E-04  0.2079E-04
    -57.152  0.2227E+02  0.5445E+01
    -56.907  0.3858E+02  0.1488E+02
    -56.663  0.1418E+03  0.4955E+02
    -56.418  0.1145E+03  0.7754E+02
    -56.174  0.1872E+01  0.7800E+02
    -55.929  0.0000E+00  0.7800E+02
    -55.685  0.0000E+00  0.7800E+02
    -55.440  0.0000E+00  0.7800E+02
    -55.196  0.0000E+00  0.7800E+02
    -54.951  0.0000E+00  0.7800E+02
    -54.707  0.0000E+00  0.7800E+02
    -54.462  0.0000E+00  0.7800E+02
    -54.218  0.0000E+00  0.7800E+02
    -53.973  0.0000E+00  0.7800E+02
    -53.729  0.0000E+00  0.7800E+02
    -53.484  0.0000E+00  0.7800E+02
    -53.239  0.0000E+00  0.7800E+02
    -52.995  0.0000E+00  0.7800E+02
    -52.750  0.0000E+00  0.7800E+02
    -52.506  0.0000E+00  0.7800E+02
    -52.261  0.0000E+00  0.7800E+02
    -52.017  0.0000E+00  0.7800E+02
    -51.772  0.0000E+00  0.7800E+02
    -51.528  0.0000E+00  0.7800E+02
    -51.283  0.0000E+00  0.7800E+02
    -51.039  0.0000E+00  0.7800E+02
    -50.794  0.0000E+00  0.7800E+02
    -50.550  0.0000E+00  0.7800E+02
    -50.305  0.0000E+00  0.7800E+02
    -50.061  0.0000E+00  0.7800E+02
    -49.816  0.2644E-03  0.7800E+02
    -49.572  0.2414E+02  0.8390E+02
    -49.327  0.9544E+02  0.1072E+03
    -49.083  0.5049E+02  0.1196E+03
    -48.838  0.1105E+02  0.1223E+03
    -48.594  0.1395E+02  0.1257E+03
    -48.349  0.9379E+01  0.1280E+03
    -48.105  0.4375E-01  0.1280E+03
    -47.860  0.0000E+00  0.1280E+03
    -47.615  0.0000E+00  0.1280E+03
    -47.371  0.0000E+00  0.1280E+03
    -47.126  0.0000E+00  0.1280E+03
    -46.882  0.0000E+00  0.1280E+03
    -46.637  0.0000E+00  0.1280E+03
    -46.393  0.0000E+00  0.1280E+03
    -46.148  0.0000E+00  0.1280E+03
    -45.904  0.0000E+00  0.1280E+03
    -45.659  0.0000E+00  0.1280E+03
    -45.415  0.0000E+00  0.1280E+03
    -45.170  0.0000E+00  0.1280E+03
    -44.926  0.0000E+00  0.1280E+03
    -44.681  0.0000E+00  0.1280E+03
    -44.437  0.0000E+00  0.1280E+03
    -44.192  0.0000E+00  0.1280E+03
    -43.948  0.0000E+00  0.1280E+03
    -43.703  0.0000E+00  0.1280E+03
    -43.459  0.0000E+00  0.1280E+03
    -43.214  0.0000E+00  0.1280E+03
    -42.970  0.0000E+00  0.1280E+03
    -42.725  0.0000E+00  0.1280E+03
    -42.481  0.0000E+00  0.1280E+03
    -42.236  0.0000E+00  0.1280E+03
    -41.992  0.0000E+00  0.1280E+03
    -41.747  0.0000E+00  0.1280E+03
    -41.502  0.0000E+00  0.1280E+03
    -41.258  0.0000E+00  0.1280E+03
    -41.013  0.0000E+00  0.1280E+03
    -40.769  0.0000E+00  0.1280E+03
    -40.524  0.0000E+00  0.1280E+03
    -40.280  0.0000E+00  0.1280E+03
    -40.035  0.0000E+00  0.1280E+03
    -39.791  0.0000E+00  0.1280E+03
    -39.546  0.0000E+00  0.1280E+03
    -39.302  0.0000E+00  0.1280E+03
    -39.057  0.0000E+00  0.1280E+03
    -38.813  0.0000E+00  0.1280E+03
    -38.568  0.0000E+00  0.1280E+03
    -38.324  0.0000E+00  0.1280E+03
    -38.079  0.0000E+00  0.1280E+03
    -37.835  0.0000E+00  0.1280E+03
    -37.590  0.0000E+00  0.1280E+03
    -37.346  0.0000E+00  0.1280E+03
    -37.101  0.0000E+00  0.1280E+03
    -36.857  0.0000E+00  0.1280E+03
    -36.612  0.0000E+00  0.1280E+03
    -36.368  0.0000E+00  0.1280E+03
    -36.123  0.0000E+00  0.1280E+03
    -35.878  0.0000E+00  0.1280E+03
    -35.634  0.0000E+00  0.1280E+03
    -35.389  0.0000E+00  0.1280E+03
    -35.145  0.0000E+00  0.1280E+03
    -34.900  0.0000E+00  0.1280E+03
    -34.656  0.0000E+00  0.1280E+03
    -34.411  0.0000E+00  0.1280E+03
    -34.167  0.0000E+00  0.1280E+03
    -33.922  0.0000E+00  0.1280E+03
    -33.678  0.0000E+00  0.1280E+03
    -33.433  0.0000E+00  0.1280E+03
    -33.189  0.0000E+00  0.1280E+03
    -32.944  0.0000E+00  0.1280E+03
    -32.700  0.0000E+00  0.1280E+03
    -32.455  0.0000E+00  0.1280E+03
    -32.211  0.0000E+00  0.1280E+03
    -31.966  0.0000E+00  0.1280E+03
    -31.722  0.0000E+00  0.1280E+03
    -31.477  0.0000E+00  0.1280E+03
    -31.233  0.0000E+00  0.1280E+03
    -30.988  0.0000E+00  0.1280E+03
    -30.744  0.0000E+00  0.1280E+03
    -30.499  0.0000E+00  0.1280E+03
    -30.254  0.0000E+00  0.1280E+03
    -30.010  0.0000E+00  0.1280E+03
    -29.765  0.0000E+00  0.1280E+03
    -29.521  0.0000E+00  0.1280E+03
    -29.276  0.0000E+00  0.1280E+03
    -29.032  0.0000E+00  0.1280E+03
    -28.787  0.0000E+00  0.1280E+03
    -28.543  0.0000E+00  0.1280E+03
    -28.298  0.0000E+00  0.1280E+03
    -28.054  0.0000E+00  0.1280E+03
    -27.809  0.0000E+00  0.1280E+03
    -27.565  0.0000E+00  0.1280E+03
    -27.320  0.1351E-11  0.1280E+03
    -27.076  0.2906E+01  0.1287E+03
    -26.831  0.5676E+01  0.1301E+03
    -26.587  0.7777E+01  0.1320E+03
    -26.342  0.4557E+00  0.1321E+03
    -26.098  0.2625E+02  0.1385E+03
    -25.853  0.1392E+03  0.1726E+03
    -25.609  0.1839E+03  0.2175E+03
    -25.364  0.1337E+03  0.2502E+03
    -25.120  0.4052E+02  0.2601E+03
    -24.875  0.3854E+02  0.2696E+03
    -24.630  0.1062E+02  0.2722E+03
    -24.386  0.7508E+01  0.2740E+03
    -24.141  0.8173E+01  0.2760E+03
    -23.897  0.3361E+01  0.2768E+03
    -23.652  0.6677E+01  0.2785E+03
    -23.408  0.6130E+02  0.2934E+03
    -23.163  0.1314E+03  0.3256E+03
    -22.919  0.1328E+03  0.3580E+03
    -22.674  0.4364E+02  0.3687E+03
    -22.430  0.1344E+02  0.3720E+03
    -22.185  0.0000E+00  0.3720E+03
    -21.941  0.5793E-01  0.3720E+03
    -21.696  0.8121E+01  0.3740E+03
    -21.452  0.0000E+00  0.3740E+03
    -21.207  0.0000E+00  0.3740E+03
    -20.963  0.0000E+00  0.3740E+03
    -20.718  0.0000E+00  0.3740E+03
    -20.474  0.0000E+00  0.3740E+03
    -20.229  0.0000E+00  0.3740E+03
    -19.985  0.0000E+00  0.3740E+03
    -19.740  0.0000E+00  0.3740E+03
    -19.496  0.0000E+00  0.3740E+03
    -19.251  0.0000E+00  0.3740E+03
    -19.006  0.0000E+00  0.3740E+03
    -18.762  0.0000E+00  0.3740E+03
    -18.517  0.0000E+00  0.3740E+03
    -18.273  0.0000E+00  0.3740E+03
    -18.028  0.0000E+00  0.3740E+03
    -17.784  0.0000E+00  0.3740E+03
    -17.539  0.0000E+00  0.3740E+03
    -17.295  0.0000E+00  0.3740E+03
    -17.050  0.0000E+00  0.3740E+03
    -16.806  0.0000E+00  0.3740E+03
    -16.561  0.0000E+00  0.3740E+03
    -16.317  0.0000E+00  0.3740E+03
    -16.072  0.0000E+00  0.3740E+03
    -15.828  0.0000E+00  0.3740E+03
    -15.583  0.0000E+00  0.3740E+03
    -15.339  0.0000E+00  0.3740E+03
    -15.094  0.0000E+00  0.3740E+03
    -14.850  0.0000E+00  0.3740E+03
    -14.605  0.0000E+00  0.3740E+03
    -14.361  0.0000E+00  0.3740E+03
    -14.116  0.0000E+00  0.3740E+03
    -13.872  0.0000E+00  0.3740E+03
    -13.627  0.0000E+00  0.3740E+03
    -13.382  0.0000E+00  0.3740E+03
    -13.138  0.0000E+00  0.3740E+03
    -12.893  0.0000E+00  0.3740E+03
    -12.649  0.0000E+00  0.3740E+03
    -12.404  0.0000E+00  0.3740E+03
    -12.160  0.0000E+00  0.3740E+03
    -11.915  0.0000E+00  0.3740E+03
    -11.671  0.0000E+00  0.3740E+03
    -11.426  0.0000E+00  0.3740E+03
    -11.182  0.0000E+00  0.3740E+03
    -10.937  0.0000E+00  0.3740E+03
    -10.693  0.0000E+00  0.3740E+03
    -10.448  0.0000E+00  0.3740E+03
    -10.204  0.0000E+00  0.3740E+03
     -9.959  0.0000E+00  0.3740E+03
     -9.715  0.0000E+00  0.3740E+03
     -9.470  0.0000E+00  0.3740E+03
     -9.226  0.0000E+00  0.3740E+03
     -8.981  0.0000E+00  0.3740E+03
     -8.737  0.0000E+00  0.3740E+03
     -8.492  0.0000E+00  0.3740E+03
     -8.248  0.0000E+00  0.3740E+03
     -8.003  0.0000E+00  0.3740E+03
     -7.758  0.0000E+00  0.3740E+03
     -7.514  0.0000E+00  0.3740E+03
     -7.269  0.0000E+00  0.3740E+03
     -7.025  0.0000E+00  0.3740E+03
     -6.780  0.0000E+00  0.3740E+03
     -6.536  0.0000E+00  0.3740E+03
     -6.291  0.0000E+00  0.3740E+03
     -6.047  0.0000E+00  0.3740E+03
     -5.802  0.0000E+00  0.3740E+03
     -5.558  0.0000E+00  0.3740E+03
     -5.313  0.0000E+00  0.3740E+03
     -5.069  0.0000E+00  0.3740E+03
     -4.824  0.0000E+00  0.3740E+03
     -4.580  0.0000E+00  0.3740E+03
     -4.335  0.0000E+00  0.3740E+03
     -4.091  0.0000E+00  0.3740E+03
     -3.846  0.0000E+00  0.3740E+03
     -3.602  0.0000E+00  0.3740E+03
     -3.357  0.0000E+00  0.3740E+03
     -3.113  0.0000E+00  0.3740E+03
     -2.868  0.0000E+00  0.3740E+03
     -2.624  0.0000E+00  0.3740E+03
     -2.379  0.0000E+00  0.3740E+03
     -2.134  0.0000E+00  0.3740E+03
     -1.890  0.0000E+00  0.3740E+03
     -1.645  0.0000E+00  0.3740E+03
     -1.401  0.0000E+00  0.3740E+03
     -1.156  0.0000E+00  0.3740E+03
     -0.912  0.0000E+00  0.3740E+03
     -0.667  0.0000E+00  0.3740E+03
     -0.423  0.0000E+00  0.3740E+03
     -0.178  0.4509E-05  0.3740E+03
      0.066  0.1016E+01  0.3742E+03
      0.311  0.1116E+00  0.3743E+03
      0.555  0.4528E+01  0.3754E+03
      0.800  0.4295E+01  0.3764E+03
      1.044  0.6380E+01  0.3780E+03
      1.289  0.4636E+01  0.3791E+03
      1.533  0.3601E+01  0.3800E+03
      1.778  0.6448E+01  0.3816E+03
      2.022  0.6570E+01  0.3832E+03
      2.267  0.1117E+02  0.3859E+03
      2.511  0.1317E+02  0.3891E+03
      2.756  0.1313E+02  0.3924E+03
      3.000  0.9623E+01  0.3947E+03
      3.245  0.1613E+02  0.3986E+03
      3.490  0.3249E+02  0.4066E+03
      3.734  0.5269E+02  0.4195E+03
      3.979  0.7304E+02  0.4373E+03
      4.223  0.7755E+02  0.4563E+03
      4.468  0.8792E+02  0.4778E+03
      4.712  0.9110E+02  0.5001E+03
      4.957  0.9300E+02  0.5228E+03
      5.201  0.8386E+02  0.5433E+03
      5.446  0.7108E+02  0.5607E+03
      5.690  0.5910E+02  0.5752E+03
      5.935  0.5726E+02  0.5892E+03
      6.179  0.6405E+02  0.6048E+03
      6.424  0.6345E+02  0.6203E+03
      6.668  0.7255E+02  0.6381E+03
      6.913  0.7086E+02  0.6554E+03
      7.157  0.7119E+02  0.6728E+03
      7.402  0.6544E+02  0.6888E+03
      7.646  0.6852E+02  0.7056E+03
      7.891  0.6252E+02  0.7208E+03
      8.135  0.5579E+02  0.7345E+03
      8.380  0.5200E+02  0.7472E+03
      8.624  0.5065E+02  0.7596E+03
      8.869  0.5403E+02  0.7728E+03
      9.114  0.5872E+02  0.7872E+03
      9.358  0.5244E+02  0.8000E+03
      9.603  0.1643E+02  0.8040E+03
      9.847  0.0000E+00  0.8040E+03
     10.092  0.0000E+00  0.8040E+03
     10.336  0.0000E+00  0.8040E+03
     10.581  0.0000E+00  0.8040E+03
     10.825  0.0000E+00  0.8040E+03
     11.070  0.0000E+00  0.8040E+03
     11.314  0.0000E+00  0.8040E+03
     11.559  0.0000E+00  0.8040E+03
     11.803  0.0000E+00  0.8040E+03
     12.048  0.0000E+00  0.8040E+03
     12.292  0.0000E+00  0.8040E+03
     12.537  0.0000E+00  0.8040E+03
     12.781  0.0000E+00  0.8040E+03
