       N       E                     dE             d eps       ncg     rms          rms(c)
DAV:   1     0.972510026246E+04    0.97251E+04   -0.34692E+05  6432   0.198E+03
DAV:   2     0.766710019675E+03   -0.89584E+04   -0.87601E+04  6432   0.672E+02
DAV:   3    -0.278758464342E+03   -0.10455E+04   -0.97404E+03  8028   0.223E+02
DAV:   4    -0.452926813939E+03   -0.17417E+03   -0.16661E+03 10200   0.670E+01
DAV:   5    -0.470719709572E+03   -0.17793E+02   -0.17534E+02  9780   0.172E+01    0.243E+02
DAV:   6    -0.586315644620E+03   -0.11560E+03   -0.11245E+03  9024   0.147E+02    0.179E+02
DAV:   7    -0.512468575752E+03    0.73847E+02   -0.11060E+03  9288   0.934E+01    0.146E+02
DAV:   8    -0.562863294813E+03   -0.50395E+02   -0.13300E+03  9564   0.124E+02    0.168E+02
DAV:   9    -0.525063748893E+03    0.37800E+02   -0.50414E+02  8688   0.621E+01    0.102E+02
DAV:  10    -0.459794833725E+03    0.65269E+02   -0.25397E+02  9228   0.450E+01    0.591E+01
DAV:  11    -0.441126488935E+03    0.18668E+02   -0.81115E+01  9408   0.357E+01    0.615E+01
DAV:  12    -0.431803325946E+03    0.93232E+01   -0.29768E+01 10020   0.226E+01    0.502E+01
DAV:  13    -0.428136069562E+03    0.36673E+01   -0.80331E+00  9456   0.973E+00    0.464E+01
DAV:  14    -0.424459324704E+03    0.36767E+01   -0.69050E+00  8952   0.132E+01    0.377E+01
DAV:  15    -0.423002766072E+03    0.14566E+01   -0.85156E+00  9948   0.147E+01    0.315E+01
DAV:  16    -0.421424597432E+03    0.15782E+01   -0.11117E+01  9936   0.151E+01    0.224E+01
DAV:  17    -0.421853879615E+03   -0.42928E+00   -0.10225E+01 10044   0.144E+01    0.175E+01
DAV:  18    -0.420821164693E+03    0.10327E+01   -0.41909E+00 10044   0.924E+00    0.105E+01
DAV:  19    -0.421021224657E+03   -0.20006E+00   -0.22330E+00 10068   0.789E+00    0.113E+01
DAV:  20    -0.420641471442E+03    0.37975E+00   -0.14621E+00  9840   0.634E+00    0.781E+00
DAV:  21    -0.420690765947E+03   -0.49295E-01   -0.15128E+00 10104   0.666E+00    0.710E+00
DAV:  22    -0.420562131352E+03    0.12863E+00   -0.82252E-01 10068   0.503E+00    0.541E+00
DAV:  23    -0.420448702848E+03    0.11343E+00   -0.29104E-01  9780   0.272E+00    0.359E+00
DAV:  24    -0.420416247219E+03    0.32456E-01   -0.11387E-01  9180   0.153E+00    0.258E+00
DAV:  25    -0.420409662974E+03    0.65842E-02   -0.49928E-02  9660   0.111E+00    0.212E+00
DAV:  26    -0.420404790886E+03    0.48721E-02   -0.33090E-02  9852   0.993E-01    0.162E+00
DAV:  27    -0.420402485115E+03    0.23058E-02   -0.35389E-02  9720   0.928E-01    0.131E+00
DAV:  28    -0.420395983029E+03    0.65021E-02   -0.21431E-02  9732   0.754E-01    0.802E-01
DAV:  29    -0.420394810137E+03    0.11729E-02   -0.90639E-03  9720   0.448E-01    0.595E-01
DAV:  30    -0.420394304750E+03    0.50539E-03   -0.34055E-03  9612   0.290E-01    0.412E-01
DAV:  31    -0.420394086657E+03    0.21809E-03   -0.17794E-03  9828   0.227E-01    0.294E-01
DAV:  32    -0.420393914224E+03    0.17243E-03   -0.11227E-03  9876   0.173E-01    0.141E-01
DAV:  33    -0.420393858942E+03    0.55282E-04   -0.67518E-04  8928   0.120E-01    0.107E-01
DAV:  34    -0.420393837034E+03    0.21907E-04   -0.34284E-04  9564   0.944E-02    0.748E-02
DAV:  35    -0.420393821397E+03    0.15637E-04   -0.19615E-04  9288   0.684E-02    0.569E-02
DAV:  36    -0.420393813725E+03    0.76724E-05   -0.83289E-05  9744   0.463E-02    0.394E-02
DAV:  37    -0.420393809224E+03    0.45009E-05   -0.44626E-05  9564   0.341E-02    0.233E-02
DAV:  38    -0.420393808304E+03    0.92067E-06   -0.19879E-05  9204   0.234E-02    0.175E-02
DAV:  39    -0.420393807590E+03    0.71339E-06   -0.86195E-06  7884   0.164E-02
   1 F= -.42039381E+03 E0= -.42034824E+03  d E =-.911261E-01
