 vasp.5.4.4 18Apr17 (build Dec 13 2019 08:37:50) complex                        
  
 executed on             LinuxIFC date 2022.02.15  09:38:29
 running on   24 total cores
 distrk:  each k-point on   24 cores,    1 groups
 distr:  one band on NCORES_PER_BAND=   4 cores,    6 groups


--------------------------------------------------------------------------------------------------------


 INCAR:
 POTCAR:    PAW_PBE Hf_pv 06Sep2000               
 POTCAR:    PAW_PBE Ni_pv 06Sep2000               
 POTCAR:    PAW_PBE Ti_sv 26Sep2005               
 POTCAR:    PAW_PBE Hf_pv 06Sep2000               
  local pseudopotential read in
  partial core-charges read in
  partial kinetic energy density read in
  atomic valenz-charges read in
  non local Contribution for L=           1  read in
    real space projection operators read in
  non local Contribution for L=           1  read in
    real space projection operators read in
  non local Contribution for L=           2  read in
    real space projection operators read in
  non local Contribution for L=           2  read in
    real space projection operators read in
  non local Contribution for L=           0  read in
    real space projection operators read in
  non local Contribution for L=           0  read in
    real space projection operators read in
    PAW grid and wavefunctions read in
 
   number of l-projection  operators is LMAX  =           6
   number of lm-projection operators is LMMAX =          18
 
 POTCAR:    PAW_PBE Ni_pv 06Sep2000               
  local pseudopotential read in
  partial core-charges read in
  partial kinetic energy density read in
  atomic valenz-charges read in
  non local Contribution for L=           1  read in
    real space projection operators read in
  non local Contribution for L=           1  read in
    real space projection operators read in
  non local Contribution for L=           2  read in
    real space projection operators read in
  non local Contribution for L=           2  read in
    real space projection operators read in
  non local Contribution for L=           0  read in
    real space projection operators read in
  non local Contribution for L=           0  read in
    real space projection operators read in
    PAW grid and wavefunctions read in
 
   number of l-projection  operators is LMAX  =           6
   number of lm-projection operators is LMMAX =          18
 
 POTCAR:    PAW_PBE Ti_sv 26Sep2005               
  local pseudopotential read in
  partial core-charges read in
  partial kinetic energy density read in
  atomic valenz-charges read in
  non local Contribution for L=           0  read in
    real space projection operators read in
  non local Contribution for L=           0  read in
    real space projection operators read in
  non local Contribution for L=           1  read in
    real space projection operators read in
  non local Contribution for L=           1  read in
    real space projection operators read in
  non local Contribution for L=           2  read in
    real space projection operators read in
  non local Contribution for L=           2  read in
    real space projection operators read in
    PAW grid and wavefunctions read in
 
   number of l-projection  operators is LMAX  =           6
   number of lm-projection operators is LMMAX =          18
 
 Optimization of the real space projectors (new method)

 maximal supplied QI-value         = 14.36
 optimisation between [QCUT,QGAM] = [ 11.35, 22.84] = [ 36.05,146.02] Ry 
 Optimized for a Real-space Cutoff    1.56 Angstroem

   l    n(q)    QCUT    max X(q) W(low)/X(q) W(high)/X(q)  e(spline) 
   1     10    11.346    53.935    0.90E-04    0.16E-04    0.20E-06
   1     10    11.346    55.378    0.93E-04    0.17E-04    0.21E-06
   2     10    11.346    48.043    0.36E-03    0.80E-03    0.11E-05
   2     10    11.346    39.488    0.34E-03    0.76E-03    0.10E-05
   0     11    11.346   121.653    0.34E-04    0.10E-03    0.70E-06
   0     11    11.346    66.520    0.31E-04    0.90E-04    0.64E-06
 Optimization of the real space projectors (new method)

 maximal supplied QI-value         = 18.90
 optimisation between [QCUT,QGAM] = [ 11.34, 22.87] = [ 36.00,146.41] Ry 
 Optimized for a Real-space Cutoff    1.35 Angstroem

   l    n(q)    QCUT    max X(q) W(low)/X(q) W(high)/X(q)  e(spline) 
   1      9    11.338     2.836    0.21E-04    0.44E-04    0.96E-07
   1      9    11.338     4.023    0.81E-04    0.11E-03    0.22E-06
   2      8    11.338    73.368    0.36E-03    0.40E-03    0.33E-06
   2      8    11.338    69.010    0.37E-03    0.41E-03    0.34E-06
   0      9    11.338    54.797    0.66E-04    0.74E-04    0.73E-07
   0      9    11.338    24.266    0.52E-04    0.65E-04    0.65E-07
 Optimization of the real space projectors (new method)

 maximal supplied QI-value         = 16.25
 optimisation between [QCUT,QGAM] = [ 11.38, 22.75] = [ 36.24,144.96] Ry 
 Optimized for a Real-space Cutoff    1.27 Angstroem

   l    n(q)    QCUT    max X(q) W(low)/X(q) W(high)/X(q)  e(spline) 
   0      9    11.376    12.277    0.53E-04    0.25E-04    0.25E-07
   0      9    11.376    11.419    0.89E-04    0.67E-05    0.35E-07
   1      8    11.376     4.010    0.13E-03    0.11E-03    0.29E-07
   1      8    11.376     6.182    0.94E-04    0.19E-03    0.11E-06
   2      8    11.376    47.177    0.13E-03    0.88E-03    0.24E-06
   2      8    11.376    42.437    0.13E-03    0.86E-03    0.23E-06
  PAW_PBE Hf_pv 06Sep2000               :
 energy of atom  1       EATOM= -860.9206
 kinetic energy error for atom=    0.0014 (will be added to EATOM!!)
  PAW_PBE Ni_pv 06Sep2000               :
 energy of atom  2       EATOM=-3501.1230
 kinetic energy error for atom=    0.0690 (will be added to EATOM!!)
  PAW_PBE Ti_sv 26Sep2005               :
 energy of atom  3       EATOM=-1588.0892
 kinetic energy error for atom=    0.0046 (will be added to EATOM!!)
 
 
 POSCAR: MLIP output to VASP                     
  positions in cartesian coordinates
  No initial velocities read in
 exchange correlation table for  LEXCH =        8
   RHO(1)=    0.500       N(1)  =     2000
   RHO(2)=  100.500       N(2)  =     4000
 


--------------------------------------------------------------------------------------------------------


 ion  position               nearest neighbor table
   1  0.330  0.350  0.019-  28 2.57  25 2.58  44 2.73  32 2.94  39 2.95  45 3.01  18 3.06  37 3.12
                            43 3.14  15 3.18  31 3.24  52 3.28   4 3.31   2 3.36
   2  0.282  0.712  0.993-  25 2.49  29 2.63  26 2.66  45 2.78  31 2.82  28 2.89  52 2.92  30 2.95
                            33 3.06  38 3.11  42 3.27   9 3.30   1 3.36
   3  0.671  0.003  0.307-  46 2.70  17 2.72  47 2.75  20 2.79  44 2.82  11 2.88   9 2.91  14 2.92
                            37 2.98  22 3.16  35 3.17  34 3.19   7 3.29  13 3.43
   4  0.305  0.390  0.367-  25 2.50  44 2.97  12 3.00  10 3.03  48 3.05  37 3.08  11 3.09  36 3.15
                            38 3.27   1 3.31  39 3.33   5 3.41
   5  0.029  0.625  0.351-  25 2.52  26 2.72  49 2.77  50 2.80  36 2.93  46 2.94  48 3.02  33 3.06
                             8 3.20  14 3.28   4 3.41
   6  0.976  0.002  0.660-  23 2.59  27 2.64  41 2.72  22 2.82  50 2.91  29 2.94  34 2.97  54 2.98
                            30 3.10  15 3.14  10 3.16  14 3.17
   7  0.868  0.181  0.107-  27 2.56  17 2.60  18 2.70  34 2.87   8 3.04  43 3.06  36 3.08  47 3.10
                            30 3.16   3 3.29  37 3.37  46 3.39  15 3.40  16 3.53
   8  0.796  0.489  0.197-  20 2.55  19 2.64  18 2.82  36 2.97  49 2.97  37 3.04   7 3.04  33 3.10
                            45 3.11  47 3.13   5 3.20  46 3.24  16 3.33  32 3.33  12 3.62
   9  0.545  0.860  0.083-  19 2.52  17 2.59  20 2.66  31 2.76  35 2.80  45 2.85   3 2.91  38 2.99
                            44 3.06  51 3.17  46 3.24   2 3.30
  10  0.219  0.117  0.504-  21 2.73  50 2.89  35 2.91  36 2.98   4 3.03  43 3.09  11 3.11   6 3.16
                            34 3.19  48 3.22  13 3.51  15 3.65
  11  0.513  0.166  0.508-  22 2.59  39 2.77   3 2.88  51 2.90  40 2.93  44 2.94  21 2.98  47 2.99
                            37 3.01   4 3.09  10 3.11  13 3.17  12 3.18  35 3.32
  12  0.550  0.499  0.472-  24 2.62  20 2.81  40 2.83  38 2.89  37 3.00   4 3.00  49 3.14  11 3.18
                            13 3.23  39 3.28  47 3.30  45 3.32  42 3.36   8 3.62
  13  0.471  0.835  0.535-  53 2.01  35 2.50  38 2.68  24 2.96  20 3.15  21 3.16  11 3.17  29 3.20
                            50 3.22  12 3.23  42 3.23  14 3.25   3 3.43  10 3.51
  14  0.788  0.796  0.524-  24 2.36  22 2.43  20 2.68   3 2.92  49 3.01   6 3.17  41 3.23  13 3.25
                             5 3.28  53 3.32  34 3.33  46 3.37
  15  0.106  0.207  0.861-  18 2.71  28 2.74  23 2.83  30 2.87  31 2.93  21 2.97  27 3.02  43 3.08
                            48 3.11   6 3.14   1 3.18  16 3.30   7 3.40  10 3.65
  16  0.864  0.467  0.851-  19 2.70  23 2.79  18 2.81  24 2.86  33 2.87  40 2.93  28 2.96  32 3.01
                            27 3.07  49 3.23  41 3.23  15 3.30   8 3.33   7 3.53
  17  0.646  0.098  0.030-  51 2.43   9 2.59   7 2.60  32 2.71   3 2.72
  18  0.037  0.381  0.078-  25 2.47  28 2.52  33 2.53  36 2.59  43 2.63   7 2.70  15 2.71  16 2.81
                             8 2.82   1 3.06
  19  0.692  0.655  0.984-   9 2.52  45 2.56   8 2.64  54 2.64  52 2.69  16 2.70
  20  0.662  0.706  0.300-   8 2.55  46 2.61   9 2.66  14 2.68   3 2.79  12 2.81  13 3.15
  21  0.357  0.066  0.752-  51 2.12  29 2.36  31 2.47  39 2.55  10 2.73  15 2.97  11 2.98  13 3.16

  22  0.702  0.013  0.641-  51 2.09  14 2.43  11 2.59   6 2.82   3 3.16
  23  0.929  0.280  0.633-  49 2.21  48 2.46   6 2.59  47 2.63  40 2.64  16 2.79  15 2.83
  24  0.681  0.626  0.660-  53 2.08  14 2.36  52 2.57  49 2.61  12 2.62  16 2.86  13 2.96
  25  0.194  0.539  0.167-  18 2.47   2 2.49   4 2.50  33 2.52   5 2.52   1 2.58
  26  0.157  0.829  0.214-  30 2.58  38 2.63  50 2.64  34 2.65   2 2.66   5 2.72  35 2.73
  27  0.824  0.146  0.843-  40 2.50   7 2.56   6 2.64  54 2.65  15 3.02  16 3.07
  28  0.148  0.491  0.868-  18 2.52  33 2.56  48 2.56   1 2.57  41 2.58  42 2.63  15 2.74   2 2.89
                            16 2.96
  29  0.233  0.867  0.755-  21 2.36  41 2.60  50 2.61  42 2.62   2 2.63   6 2.94  13 3.20
  30  0.053  0.930  0.975-  26 2.58  54 2.61  33 2.76  31 2.82  15 2.87   2 2.95   6 3.10   7 3.16

  31  0.309  0.008  0.004-  21 2.47  43 2.53  44 2.72   9 2.76   2 2.82  30 2.82  15 2.93   1 3.24

  32  0.604  0.380  0.947-  52 2.25  45 2.59  40 2.59  37 2.70  17 2.71   1 2.94  16 3.01   8 3.33

  33  0.997  0.650  0.027-  25 2.52  18 2.53  46 2.54  28 2.56  30 2.76  54 2.80  41 2.82  16 2.87
                             5 3.06   2 3.06   8 3.10
  34  0.979  0.004  0.343-  26 2.65  43 2.77  50 2.78  46 2.80   7 2.87  47 2.91   6 2.97  10 3.19
                             3 3.19  14 3.33
  35  0.375  0.940  0.305-  38 2.11  44 2.16  13 2.50  26 2.73   9 2.80  10 2.91   3 3.17  11 3.32

  36  0.016  0.313  0.346-  18 2.59  43 2.63  49 2.66  47 2.71   5 2.93   8 2.97  10 2.98   7 3.08
                             4 3.15
  37  0.570  0.306  0.224-  44 2.24  45 2.59  32 2.70  47 2.82   3 2.98  12 3.00  11 3.01   8 3.04
                             4 3.08   1 3.12   7 3.37
  38  0.389  0.714  0.302-  35 2.11  45 2.44  26 2.63  13 2.68  12 2.89   9 2.99   2 3.11   4 3.27

  39  0.381  0.333  0.711-  21 2.55  42 2.65  11 2.77  52 2.88   1 2.95  12 3.28   4 3.33
  40  0.678  0.320  0.690-  27 2.50  32 2.59  23 2.64  12 2.83  47 2.88  11 2.93  16 2.93
  41  0.034  0.718  0.736-  28 2.58  29 2.60   6 2.72  42 2.78  50 2.81  33 2.82  54 2.84  16 3.23
                            14 3.23
  42  0.285  0.605  0.665-  29 2.62  48 2.62  28 2.63  39 2.65  52 2.65  50 2.71  41 2.78  13 3.23
                             2 3.27  12 3.36
  43  0.159  0.138  0.181-  31 2.53  18 2.63  36 2.63  34 2.77  44 2.80   7 3.06  15 3.08  10 3.09
                             1 3.14
  44  0.429  0.140  0.212-  35 2.16  37 2.24  31 2.72   1 2.73  43 2.80   3 2.82  11 2.94   4 2.97
                             9 3.06
  45  0.502  0.565  0.124-  38 2.44  19 2.56  37 2.59  32 2.59  52 2.77   2 2.78   9 2.85   1 3.01
                             8 3.11  12 3.32
  46  0.851  0.824  0.173-  33 2.54  20 2.61  54 2.68   3 2.70  34 2.80   5 2.94   8 3.24   9 3.24
                            14 3.37   7 3.39
  47  0.778  0.232  0.418-  23 2.63  49 2.66  36 2.71   3 2.75  37 2.82  40 2.88  34 2.91  11 2.99
                             7 3.10   8 3.13  12 3.30
  48  0.109  0.431  0.608-  23 2.46  28 2.56  42 2.62  49 2.78   5 3.02   4 3.05  15 3.11  10 3.22

  49  0.854  0.476  0.508-  23 2.21  24 2.61  36 2.66  47 2.66   5 2.77  48 2.78   8 2.97  14 3.01
                            12 3.14  16 3.23
  50  0.163  0.821  0.495-  29 2.61  26 2.64  42 2.71  34 2.78   5 2.80  41 2.81  10 2.89   6 2.91
                            13 3.22
  51  0.559  0.051  0.797-  22 2.09  21 2.12  17 2.43  53 2.76  11 2.90   9 3.17
  52  0.496  0.570  0.829-  53 2.11  32 2.25  24 2.57  42 2.65  19 2.69  45 2.77  39 2.88   2 2.92
                             1 3.28
  53  0.531  0.771  0.733-  13 2.01  24 2.08  52 2.11  51 2.76  14 3.32
  54  0.826  0.864  0.889-  30 2.61  19 2.64  27 2.65  46 2.68  33 2.80  41 2.84   6 2.98
 
  LATTYP: Found a triclinic cell.
 ALAT       =    29.8773866884
 B/A-ratio  =     0.3450371813
 C/A-ratio  =     0.3143215162
 COS(alpha) =     0.0007309725
 COS(beta)  =     0.6168880492
 COS(gamma) =     0.7235602306
  
  Lattice vectors:
  
 A1 = (  21.0630120000,  10.1400410000, -18.6061100000)
 A2 = (  10.2948030000,   0.5362940000,  -0.0311270000)
 A3 = (  -0.0147530000,  -0.1298600000,  -9.3901960000)


Analysis of symmetry for initial positions (statically):
=====================================================================
 Subroutine PRICEL returns:
 Original cell was already a primitive cell.
 

 Routine SETGRP: Setting up the symmetry group for a 
 triclinic supercell.


 Subroutine GETGRP returns: Found  1 space group operations
 (whereof  1 operations were pure point group operations)
 out of a pool of  2 trial point group operations.


The static configuration has the point symmetry C_1 .


Analysis of symmetry for dynamics (positions and initial velocities):
=====================================================================
 Subroutine PRICEL returns:
 Original cell was already a primitive cell.
 

 Routine SETGRP: Setting up the symmetry group for a 
 triclinic supercell.


 Subroutine GETGRP returns: Found  1 space group operations
 (whereof  1 operations were pure point group operations)
 out of a pool of  2 trial point group operations.


The dynamic configuration has the point symmetry C_1 .


 Subroutine INISYM returns: Found  1 space group operations
 (whereof  1 operations are pure point group operations),
 and found     1 'primitive' translations

 
 

Automatic generation of k-mesh.
 generate k-points for:    2    2    2
Space group operators:
 irot       det(A)        alpha          n_x          n_y          n_z        tau_x        tau_y        tau_z
    1     1.000000     0.000001     1.000000     0.000000     0.000000     0.000000     0.000000     0.000000
 
 Subroutine IBZKPT returns following result:
 ===========================================
 
 Found      8 irreducible k-points:
 
 Following reciprocal coordinates:
            Coordinates               Weight
  0.000000  0.000000  0.000000      1.000000
  0.500000 -0.000000  0.000000      1.000000
  0.000000  0.500000 -0.000000      1.000000
  0.500000  0.500000 -0.000000      1.000000
 -0.000000  0.000000  0.500000      1.000000
  0.500000  0.000000  0.500000      1.000000
 -0.000000  0.500000  0.500000      1.000000
  0.500000  0.500000  0.500000      1.000000
 
 Following cartesian coordinates:
            Coordinates               Weight
  0.000000  0.000000  0.000000      1.000000
  0.048705 -0.002625 -0.000040      1.000000
 -0.002804  0.053777 -0.000739      1.000000
  0.045901  0.051152 -0.000780      1.000000
  0.000232 -0.001363  0.053266      1.000000
  0.048937 -0.003988  0.053225      1.000000
 -0.002572  0.052413  0.052526      1.000000
  0.046133  0.049788  0.052486      1.000000
 


--------------------------------------------------------------------------------------------------------




 Dimension of arrays:
   k-points           NKPTS =      8   k-points in BZ     NKDIM =      8   number of bands    NBANDS=    402
   number of dos      NEDOS =    301   number of ions     NIONS =     54
   non local maximal  LDIM  =      6   non local SUM 2l+1 LMDIM =     18
   total plane-waves  NPLWV = 163296
   max r-space proj   IRMAX =   2962   max aug-charges    IRDMAX=  10266
   dimension x,y,z NGX =    56 NGY =   54 NGZ =   54
   dimension x,y,z NGXF=   112 NGYF=  108 NGZF=  108
   support grid    NGXF=   112 NGYF=  108 NGZF=  108
   ions per type =              16  13  25
   NGX,Y,Z   is equivalent  to a cutoff of   9.03,  9.61,  9.56 a.u.
   NGXF,Y,Z  is equivalent  to a cutoff of  18.06, 19.22, 19.12 a.u.

 SYSTEM =  unknown system                          
 POSCAR =  MLIP output to VASP                     

 Startparameter for this run:
   NWRITE =      1    write-flag & timer
   PREC   = normal    normal or accurate (medium, high low for compatibility)
   ISTART =      0    job   : 0-new  1-cont  2-samecut
   ICHARG =      2    charge: 1-file 2-atom 10-const
   ISPIN  =      1    spin polarized calculation?
   LNONCOLLINEAR =      F non collinear calculations
   LSORBIT =      F    spin-orbit coupling
   INIWAV =      1    electr: 0-lowe 1-rand  2-diag
   LASPH  =      F    aspherical Exc in radial PAW
   METAGGA=      F    non-selfconsistent MetaGGA calc.

 Electronic Relaxation 1
   ENCUT  =  500.0 eV  36.75 Ry    6.06 a.u.  18.80 17.04 17.12*2*pi/ulx,y,z
   ENINI  =  500.0     initial cutoff
   ENAUG  =  703.4 eV  augmentation charge cutoff
   NELM   =     60;   NELMIN=  2; NELMDL= -5     # of ELM steps 
   EDIFF  = 0.1E-05   stopping-criterion for ELM
   LREAL  =      T    real-space projection
   NLSPLINE    = F    spline interpolate recip. space projectors
   LCOMPAT=      F    compatible to vasp.4.4
   GGA_COMPAT  = T    GGA compatible to vasp.4.4-vasp.4.6
   LMAXPAW     = -100 max onsite density
   LMAXMIX     =    2 max onsite mixed and CHGCAR
   VOSKOWN=      0    Vosko Wilk Nusair interpolation
   ROPT   =   -0.00050  -0.00050  -0.00050
 Ionic relaxation
   EDIFFG = -.1E-01   stopping-criterion for IOM
   NSW    =      0    number of steps for IOM
   NBLOCK =      1;   KBLOCK =      1    inner block; outer block 
   IBRION =     -1    ionic relax: 0-MD 1-quasi-New 2-CG
   NFREE  =      0    steps in history (QN), initial steepest desc. (CG)
   ISIF   =      3    stress and relaxation
   IWAVPR =     10    prediction:  0-non 1-charg 2-wave 3-comb
   ISYM   =      2    0-nonsym 1-usesym 2-fastsym
   LCORR  =      T    Harris-Foulkes like correction to forces

   POTIM  = 0.5000    time-step for ionic-motion
   TEIN   =    0.0    initial temperature
   TEBEG  =    0.0;   TEEND  =   0.0 temperature during run
   SMASS  =  -3.00    Nose mass-parameter (am)
   estimated Nose-frequenzy (Omega)   =  0.10E-29 period in steps =****** mass=  -0.243E-26a.u.
   SCALEE = 1.0000    scale energy and forces
   NPACO  =    256;   APACO  = 16.0  distance and # of slots for P.C.
   PSTRESS=    0.0 pullay stress

  Mass of Ions in am
   POMASS = 178.49 58.69 47.88
  Ionic Valenz
   ZVAL   =  10.00 16.00 12.00
  Atomic Wigner-Seitz radii
   RWIGS  =  -1.00 -1.00 -1.00
  virtual crystal weights 
   VCA    =   1.00  1.00  1.00
   NELECT =     668.0000    total number of electrons
   NUPDOWN=      -1.0000    fix difference up-down

 DOS related values:
   EMIN   =  10.00;   EMAX   =-10.00  energy-range for DOS
   EFERMI =   0.00
   ISMEAR =     0;   SIGMA  =   0.05  broadening in eV -4-tet -1-fermi 0-gaus

 Electronic relaxation 2 (details)
   IALGO  =     38    algorithm
   LDIAG  =      T    sub-space diagonalisation (order eigenvalues)
   LSUBROT=      F    optimize rotation matrix (better conditioning)
   TURBO    =      0    0=normal 1=particle mesh
   IRESTART =      0    0=no restart 2=restart with 2 vectors
   NREBOOT  =      0    no. of reboots
   NMIN     =      0    reboot dimension
   EREF     =   0.00    reference energy to select bands
   IMIX   =      4    mixing-type and parameters
     AMIX     =   0.40;   BMIX     =  1.00
     AMIX_MAG =   1.60;   BMIX_MAG =  1.00
     AMIN     =   0.10
     WC   =   100.;   INIMIX=   1;  MIXPRE=   1;  MAXMIX= -45

 Intra band minimization:
   WEIMIN = 0.0000     energy-eigenvalue tresh-hold
   EBREAK =  0.62E-09  absolut break condition
   DEPER  =   0.30     relativ break condition  

   TIME   =   0.40     timestep for ELM

  volume/ion in A,a.u.               =      16.64       112.32
  Fermi-wavevector in a.u.,A,eV,Ry     =   1.482894  2.802264 29.918878  2.198975
  Thomas-Fermi vector in A             =   2.596624
 
 Write flags
   LWAVE        =      F    write WAVECAR
   LDOWNSAMPLE  =      F    k-point downsampling of WAVECAR
   LCHARG       =      F    write CHGCAR
   LVTOT        =      F    write LOCPOT, total local potential
   LVHAR        =      F    write LOCPOT, Hartree potential only
   LELF         =      F    write electronic localiz. function (ELF)
   LORBIT       =      0    0 simple, 1 ext, 2 COOP (PROOUT), +10 PAW based schemes


 Dipole corrections
   LMONO  =      F    monopole corrections only (constant potential shift)
   LDIPOL =      F    correct potential (dipole corrections)
   IDIPOL =      0    1-x, 2-y, 3-z, 4-all directions 
   EPSILON=  1.0000000 bulk dielectric constant

 Exchange correlation treatment:
   GGA     =    --    GGA type
   LEXCH   =     8    internal setting for exchange type
   VOSKOWN=      0    Vosko Wilk Nusair interpolation
   LHFCALC =     F    Hartree Fock is set to
   LHFONE  =     F    Hartree Fock one center treatment
   AEXX    =    0.0000 exact exchange contribution

 Linear response parameters
   LEPSILON=     F    determine dielectric tensor
   LRPA    =     F    only Hartree local field effects (RPA)
   LNABLA  =     F    use nabla operator in PAW spheres
   LVEL    =     F    velocity operator in full k-point grid
   LINTERFAST=   F  fast interpolation
   KINTER  =     0    interpolate to denser k-point grid
   CSHIFT  =0.1000    complex shift for real part using Kramers Kronig
   OMEGAMAX=  -1.0    maximum frequency
   DEG_THRESHOLD= 0.2000000E-02 threshold for treating states as degnerate
   RTIME   =   -0.100 relaxation time in fs
  (WPLASMAI=    0.000 imaginary part of plasma frequency in eV, 0.658/RTIME)
   DFIELD  = 0.0000000 0.0000000 0.0000000 field for delta impulse in time
 
 Orbital magnetization related:
   ORBITALMAG=     F  switch on orbital magnetization
   LCHIMAG   =     F  perturbation theory with respect to B field
   DQ        =  0.001000  dq finite difference perturbation B field
   LLRAUG    =     F  two centre corrections for induced B field



--------------------------------------------------------------------------------------------------------


 Static calculation
 charge density and potential will be updated during run
 non-spin polarized calculation
 Variant of blocked Davidson
 Davidson routine will perform the subspace rotation
 perform sub-space diagonalisation
    after iterative eigenvector-optimisation
 modified Broyden-mixing scheme, WC =      100.0
 initial mixing is a Kerker type mixing with AMIX =  0.4000 and BMIX =      1.0000
 Hartree-type preconditioning will be used
 using additional bands           68
 real space projection scheme for non local part
 use partial core corrections
 calculate Harris-corrections to forces 
   (improved forces if not selfconsistent)
 use gradient corrections 
 use of overlap-Matrix (Vanderbilt PP)
 Gauss-broadening in eV      SIGMA  =   0.05


--------------------------------------------------------------------------------------------------------


  energy-cutoff  :      500.00
  volume of cell :      898.82
      direct lattice vectors                 reciprocal lattice vectors
    10.294803000  0.536294000 -0.031127000     0.097409649 -0.005250193 -0.000080434
     0.502912000  9.327173000  0.236536000    -0.005607324  0.107553460 -0.001478581
     0.014753000  0.129860000  9.390196000     0.000464144 -0.002726640  0.106531028

  length of vectors
    10.308809289  9.343715852  9.391105483     0.097551067  0.107709679  0.106566927


 
 k-points in units of 2pi/SCALE and weight: read from INCAR                         
   0.00000000  0.00000000  0.00000000       0.125
   0.04870482 -0.00262510 -0.00004022       0.125
  -0.00280366  0.05377673 -0.00073929       0.125
   0.04590116  0.05115163 -0.00077951       0.125
   0.00023207 -0.00136332  0.05326551       0.125
   0.04893690 -0.00398842  0.05322530       0.125
  -0.00257159  0.05241341  0.05252622       0.125
   0.04613323  0.04978831  0.05248601       0.125
 
 k-points in reciprocal lattice and weights: read from INCAR                         
   0.00000000  0.00000000  0.00000000       0.125
   0.50000000 -0.00000000  0.00000000       0.125
   0.00000000  0.50000000 -0.00000000       0.125
   0.50000000  0.50000000 -0.00000000       0.125
  -0.00000000  0.00000000  0.50000000       0.125
   0.50000000  0.00000000  0.50000000       0.125
  -0.00000000  0.50000000  0.50000000       0.125
   0.50000000  0.50000000  0.50000000       0.125
 
 position of ions in fractional coordinates (direct lattice) 
   0.32991380  0.34990288  0.01891671
   0.28192409  0.71162644  0.99271434
   0.67147708  0.00279117  0.30665418
   0.30509079  0.38964795  0.36662374
   0.02871190  0.62466575  0.35089659
   0.97600361  0.00212645  0.65950509
   0.86778867  0.18074309  0.10741601
   0.79637322  0.48872389  0.19680845
   0.54506998  0.85996143  0.08269833
   0.21888716  0.11701296  0.50359636
   0.51283653  0.16605823  0.50798560
   0.54965547  0.49944925  0.47178093
   0.47135445  0.83456615  0.53511140
   0.78779340  0.79635472  0.52387885
   0.10595530  0.20672901  0.86060794
   0.86386702  0.46738696  0.85126495
   0.64644643  0.09792462  0.02968396
   0.03659650  0.38137154  0.07760818
   0.69151772  0.65474816  0.98363478
   0.66191794  0.70561990  0.29956489
   0.35656899  0.06572974  0.75186018
   0.70190839  0.01272941  0.64120082
   0.92895726  0.27977443  0.63289136
   0.68077602  0.62630106  0.65950666
   0.19375822  0.53888611  0.16654627
   0.15716142  0.82941085  0.21361284
   0.82432286  0.14631449  0.84296218
   0.14751120  0.49127924  0.86768938
   0.23342594  0.86653983  0.75473685
   0.05297047  0.92970663  0.97490912
   0.30852739  0.00785038  0.00354068
   0.60385282  0.38028362  0.94685972
   0.99737481  0.65009476  0.02707233
   0.97908017  0.00445771  0.34302558
   0.37510495  0.94041981  0.30543055
   0.01601376  0.31287764  0.34620370
   0.57019170  0.30563046  0.22439891
   0.38883293  0.71401862  0.30231851
   0.38120885  0.33305952  0.71058978
   0.67752638  0.31972655  0.69030333
   0.03425542  0.71829441  0.73607545
   0.28452000  0.60519729  0.66459106
   0.15871256  0.13844993  0.18073274
   0.42875419  0.14008162  0.21150639
   0.50171556  0.56476007  0.12448854
   0.85070762  0.82412040  0.17274835
   0.77847426  0.23211034  0.41773197
   0.10936407  0.43146600  0.60821435
   0.85435570  0.47639538  0.50758566
   0.16312877  0.82086466  0.49527440
   0.55885937  0.05092366  0.79724538
   0.49566374  0.57020014  0.82918670
   0.53090723  0.77053906  0.73302446
   0.82632732  0.86409526  0.88898511
 
 position of ions in cartesian coordinates  (Angst):
   3.57264700  3.44299200  0.25012700
   3.27488400  6.91757100  9.48133200
   6.91865200  0.42596500  2.85930200
   3.34221700  3.84554200  3.52533800
   0.61491200  5.88733100  3.44185000
  10.05856400  0.62890200  6.16300500
   9.02619600  2.16516100  1.02439800
   8.44719400  5.01106000  1.93888200
   6.04509300  8.32406600  0.96299900
   2.31967700  1.27418500  4.74973300
   5.37055800  1.88985200  4.79340000
   5.91673400  5.01449200  4.53114400
   5.28010900  8.10641700  5.20753400
   8.51840300  7.91825800  5.08317000
   1.20745200  2.09677900  8.12687800
   9.14095400  4.93323100  8.07720900
   6.70472400  1.26390000  0.28177900
   0.56969500  3.58682300  0.81782500
   7.46283100  6.60554100  9.36987000
   7.17359900  6.97532300  2.95927400
   3.71495600  0.90193500  7.06456300
   7.24187000  0.57842500  6.00216400
   9.71347100  3.18988600  5.98023500
   7.33315900  6.29235800  6.31984900
   2.26817200  5.15182300  1.68533700
   2.03821800  7.84808300  2.19716000
   8.57226100  1.91624700  7.92453000
   1.77847000  4.77403400  8.25938700
   2.85000200  8.30556200  7.28482900
   1.02726400  8.82654400  9.37284800
   3.18022900  0.23914300  0.02550100
   6.42176400  3.99377300  8.96235300
  10.59511700  6.60194800  0.37694000
  10.08674000  0.61119800  3.19165600
   4.33908600  9.01228800  3.07882000
   0.32731600  2.97181000  3.32442900
   6.02702700  3.18559900  2.16169400
   4.36650700  6.90756300  2.99561800
   4.10245300  3.40322100  6.73949200
   7.14597900  3.43514100  6.53662100
   0.72475100  6.81361400  7.08072900
   3.24324300  5.88367000  6.37493500
   1.70620900  1.39993300  1.72492400
   4.48750900  1.56397000  2.00587500
   5.45092400  5.55284800  1.28694100
   9.17487600  8.16537600  1.79059500
   8.13713300  2.63667100  3.95325600
   1.35184400  4.16199200  5.80990500
   9.04249700  4.96752300  4.85242000
   2.09950800  7.80814800  4.83981000
   5.79071900  0.87821700  7.48094000
   5.40175400  5.69185500  7.90567000
   5.86391300  7.56686400  7.04897800
   8.95455600  8.61816400  8.52641300
 


--------------------------------------------------------------------------------------------------------


 k-point  1 :   0.0000 0.0000 0.0000  plane waves:   22811
 k-point  2 :   0.5000-0.0000 0.0000  plane waves:   22826
 k-point  3 :   0.0000 0.5000-0.0000  plane waves:   22842
 k-point  4 :   0.5000 0.5000-0.0000  plane waves:   22792
 k-point  5 :  -0.0000 0.0000 0.5000  plane waves:   22756
 k-point  6 :   0.5000 0.0000 0.5000  plane waves:   22828
 k-point  7 :  -0.0000 0.5000 0.5000  plane waves:   22808
 k-point  8 :   0.5000 0.5000 0.5000  plane waves:   22856

 maximum and minimum number of plane-waves per node :      5755     5664

 maximum number of plane-waves:     22856
 maximum index in each direction: 
   IXMAX=   18   IYMAX=   17   IZMAX=   17
   IXMIN=  -19   IYMIN=  -17   IZMIN=  -17


 real space projection operators:
  total allocation   :      15004.12 KBytes
  max/ min on nodes  :       3758.91       3742.88


 parallel 3D FFT for wavefunctions:
    minimum data exchange during FFTs selected (reduces bandwidth)
 parallel 3D FFT for charge:
    minimum data exchange during FFTs selected (reduces bandwidth)


 total amount of memory used by VASP MPI-rank0    97335. kBytes
=======================================================================

   base      :      30000. kBytes
   nonlr-proj:       7314. kBytes
   fftplans  :       3228. kBytes
   grid      :       5429. kBytes
   one-center:        217. kBytes
   wavefun   :      51147. kBytes
 
     INWAV:  cpu time    0.0000: real time    0.0000
 Broyden mixing: mesh for mixing (old mesh)
   NGX = 37   NGY = 35   NGZ = 35
  (NGX  =112   NGY  =108   NGZ  =108)
  gives a total of  45325 points

 initial charge density was supplied:
 charge density of overlapping atoms calculated
 number of electron     668.0000000 magnetization 
 keeping initial charge density in first step


--------------------------------------------------------------------------------------------------------


 Maximum index for non-local projection operator          726
 Maximum index for augmentation-charges          572 (set IRDMAX)


--------------------------------------------------------------------------------------------------------


 First call to EWALD:  gamma=   0.184
 Maximum number of real-space cells 3x 3x 3
 Maximum number of reciprocal cells 3x 3x 3

    FEWALD:  cpu time    0.0037: real time    0.0042


--------------------------------------- Iteration      1(   1)  ---------------------------------------


    POTLOK:  cpu time    0.0687: real time    0.0860
    SETDIJ:  cpu time    0.0106: real time    0.0106
     EDDAV:  cpu time   21.8260: real time   21.8638
       DOS:  cpu time    0.0078: real time    0.0078
    --------------------------------------------
      LOOP:  cpu time   21.9132: real time   21.9683

 eigenvalue-minimisations  :  6432
 total energy-change (2. order) : 0.9725100E+04  (-0.3469179E+05)
 number of electron     668.0000000 magnetization 
 augmentation part      668.0000000 magnetization 

 Free energy of the ion-electron system (eV)
  ---------------------------------------------------
  alpha Z        PSCENC =      4808.69657484
  Ewald energy   TEWEN  =    -65452.34749412
  -Hartree energ DENC   =    -30315.70303691
  -exchange      EXHF   =         0.00000000
  -V(xc)+E(xc)   XCENC  =      3051.67690952
  PAW double counting   =     80006.67163064   -81130.40725053
  entropy T*S    EENTRO =        -0.02742862
  eigenvalues    EBANDS =      -233.98342744
  atomic energy  EATOM  =     98990.52378511
  Solvation  Ediel_sol  =         0.00000000
  ---------------------------------------------------
  free energy    TOTEN  =      9725.10026246 eV

  energy without entropy =     9725.12769109  energy(sigma->0) =     9725.11397678


--------------------------------------------------------------------------------------------------------




--------------------------------------- Iteration      1(   2)  ---------------------------------------


     EDDAV:  cpu time   22.5065: real time   22.8646
       DOS:  cpu time    0.0083: real time    0.0083
    --------------------------------------------
      LOOP:  cpu time   22.5148: real time   22.8729

 eigenvalue-minimisations  :  6432
 total energy-change (2. order) :-0.8958390E+04  (-0.8760081E+04)
 number of electron     668.0000000 magnetization 
 augmentation part      668.0000000 magnetization 

 Free energy of the ion-electron system (eV)
  ---------------------------------------------------
  alpha Z        PSCENC =      4808.69657484
  Ewald energy   TEWEN  =    -65452.34749412
  -Hartree energ DENC   =    -30315.70303691
  -exchange      EXHF   =         0.00000000
  -V(xc)+E(xc)   XCENC  =      3051.67690952
  PAW double counting   =     80006.67163064   -81130.40725053
  entropy T*S    EENTRO =        -0.04227045
  eigenvalues    EBANDS =     -9192.35882840
  atomic energy  EATOM  =     98990.52378511
  Solvation  Ediel_sol  =         0.00000000
  ---------------------------------------------------
  free energy    TOTEN  =       766.71001967 eV

  energy without entropy =      766.75229013  energy(sigma->0) =      766.73115490


--------------------------------------------------------------------------------------------------------




--------------------------------------- Iteration      1(   3)  ---------------------------------------


     EDDAV:  cpu time   25.1628: real time   25.3354
       DOS:  cpu time    0.0083: real time    0.0084
    --------------------------------------------
      LOOP:  cpu time   25.1711: real time   25.3438

 eigenvalue-minimisations  :  8028
 total energy-change (2. order) :-0.1045468E+04  (-0.9740422E+03)
 number of electron     668.0000000 magnetization 
 augmentation part      668.0000000 magnetization 

 Free energy of the ion-electron system (eV)
  ---------------------------------------------------
  alpha Z        PSCENC =      4808.69657484
  Ewald energy   TEWEN  =    -65452.34749412
  -Hartree energ DENC   =    -30315.70303691
  -exchange      EXHF   =         0.00000000
  -V(xc)+E(xc)   XCENC  =      3051.67690952
  PAW double counting   =     80006.67163064   -81130.40725053
  entropy T*S    EENTRO =        -0.06844768
  eigenvalues    EBANDS =    -10237.80113519
  atomic energy  EATOM  =     98990.52378511
  Solvation  Ediel_sol  =         0.00000000
  ---------------------------------------------------
  free energy    TOTEN  =      -278.75846434 eV

  energy without entropy =     -278.69001666  energy(sigma->0) =     -278.72424050


--------------------------------------------------------------------------------------------------------




--------------------------------------- Iteration      1(   4)  ---------------------------------------


     EDDAV:  cpu time   30.3211: real time   30.4457
       DOS:  cpu time    0.0083: real time    0.0083
    --------------------------------------------
      LOOP:  cpu time   30.3294: real time   30.4540

 eigenvalue-minimisations  : 10200
 total energy-change (2. order) :-0.1741683E+03  (-0.1666074E+03)
 number of electron     668.0000000 magnetization 
 augmentation part      668.0000000 magnetization 

 Free energy of the ion-electron system (eV)
  ---------------------------------------------------
  alpha Z        PSCENC =      4808.69657484
  Ewald energy   TEWEN  =    -65452.34749412
  -Hartree energ DENC   =    -30315.70303691
  -exchange      EXHF   =         0.00000000
  -V(xc)+E(xc)   XCENC  =      3051.67690952
  PAW double counting   =     80006.67163064   -81130.40725053
  entropy T*S    EENTRO =        -0.07296768
  eigenvalues    EBANDS =    -10411.96496479
  atomic energy  EATOM  =     98990.52378511
  Solvation  Ediel_sol  =         0.00000000
  ---------------------------------------------------
  free energy    TOTEN  =      -452.92681394 eV

  energy without entropy =     -452.85384626  energy(sigma->0) =     -452.89033010


--------------------------------------------------------------------------------------------------------




--------------------------------------- Iteration      1(   5)  ---------------------------------------


     EDDAV:  cpu time   28.7813: real time   28.8015
       DOS:  cpu time    0.0094: real time    0.0094
    CHARGE:  cpu time    0.3860: real time    0.3861
    MIXING:  cpu time    0.0052: real time    0.0052
    --------------------------------------------
      LOOP:  cpu time   29.1819: real time   29.2023

 eigenvalue-minimisations  :  9780
 total energy-change (2. order) :-0.1779290E+02  (-0.1753399E+02)
 number of electron     667.9999945 magnetization 
 augmentation part      241.2854563 magnetization 

 Broyden mixing:
  rms(total) = 0.24290E+02    rms(broyden)= 0.24289E+02
  rms(prec ) = 0.25025E+02
  weight for this iteration     100.00

 Free energy of the ion-electron system (eV)
  ---------------------------------------------------
  alpha Z        PSCENC =      4808.69657484
  Ewald energy   TEWEN  =    -65452.34749412
  -Hartree energ DENC   =    -30315.70303691
  -exchange      EXHF   =         0.00000000
  -V(xc)+E(xc)   XCENC  =      3051.67690952
  PAW double counting   =     80006.67163064   -81130.40725053
  entropy T*S    EENTRO =        -0.07493525
  eigenvalues    EBANDS =    -10429.75589285
  atomic energy  EATOM  =     98990.52378511
  Solvation  Ediel_sol  =         0.00000000
  ---------------------------------------------------
  free energy    TOTEN  =      -470.71970957 eV

  energy without entropy =     -470.64477432  energy(sigma->0) =     -470.68224195


--------------------------------------------------------------------------------------------------------




--------------------------------------- Iteration      1(   6)  ---------------------------------------


    POTLOK:  cpu time    0.0557: real time    0.0558
    SETDIJ:  cpu time    0.0101: real time    0.0101
     EDDAV:  cpu time   27.1961: real time   27.2065
       DOS:  cpu time    0.0081: real time    0.0081
    CHARGE:  cpu time    0.3707: real time    0.3707
    MIXING:  cpu time    0.0055: real time    0.0055
    --------------------------------------------
      LOOP:  cpu time   27.6462: real time   27.6567

 eigenvalue-minimisations  :  9024
 total energy-change (2. order) :-0.1155959E+03  (-0.1124544E+03)
 number of electron     667.9999922 magnetization 
 augmentation part      277.5131986 magnetization 

 Broyden mixing:
  rms(total) = 0.17910E+02    rms(broyden)= 0.17909E+02
  rms(prec ) = 0.21533E+02
  weight for this iteration     100.00

 eigenvalues of (default mixing * dielectric matrix)
  average eigenvalue GAMMA=   0.7050
  0.7050

 Free energy of the ion-electron system (eV)
  ---------------------------------------------------
  alpha Z        PSCENC =      4808.69657484
  Ewald energy   TEWEN  =    -65452.34749412
  -Hartree energ DENC   =    -28459.99045873
  -exchange      EXHF   =         0.00000000
  -V(xc)+E(xc)   XCENC  =      2981.48953229
  PAW double counting   =     88519.84008859   -89490.39818136
  entropy T*S    EENTRO =        -0.06429502
  eigenvalues    EBANDS =    -12484.06519621
  atomic energy  EATOM  =     98990.52378511
  Solvation  Ediel_sol  =         0.00000000
  ---------------------------------------------------
  free energy    TOTEN  =      -586.31564462 eV

  energy without entropy =     -586.25134960  energy(sigma->0) =     -586.28349711


--------------------------------------------------------------------------------------------------------




--------------------------------------- Iteration      1(   7)  ---------------------------------------


    POTLOK:  cpu time    0.0548: real time    0.0548
    SETDIJ:  cpu time    0.0100: real time    0.0100
     EDDAV:  cpu time   27.7605: real time   27.7712
       DOS:  cpu time    0.0080: real time    0.0080
    CHARGE:  cpu time    0.3744: real time    0.3745
    MIXING:  cpu time    0.0050: real time    0.0050
    --------------------------------------------
      LOOP:  cpu time   28.2127: real time   28.2235

 eigenvalue-minimisations  :  9288
 total energy-change (2. order) : 0.7384707E+02  (-0.1106046E+03)
 number of electron     667.9999959 magnetization 
 augmentation part      251.5506756 magnetization 

 Broyden mixing:
  rms(total) = 0.14612E+02    rms(broyden)= 0.14612E+02
  rms(prec ) = 0.21613E+02
  weight for this iteration     100.00

 eigenvalues of (default mixing * dielectric matrix)
  average eigenvalue GAMMA=   0.9578
  1.5840  0.3316

 Free energy of the ion-electron system (eV)
  ---------------------------------------------------
  alpha Z        PSCENC =      4808.69657484
  Ewald energy   TEWEN  =    -65452.34749412
  -Hartree energ DENC   =    -29582.00041225
  -exchange      EXHF   =         0.00000000
  -V(xc)+E(xc)   XCENC  =      3014.08285502
  PAW double counting   =     94424.21469387   -95581.40839049
  entropy T*S    EENTRO =        -0.08386022
  eigenvalues    EBANDS =    -11134.14632749
  atomic energy  EATOM  =     98990.52378511
  Solvation  Ediel_sol  =         0.00000000
  ---------------------------------------------------
  free energy    TOTEN  =      -512.46857575 eV

  energy without entropy =     -512.38471553  energy(sigma->0) =     -512.42664564


--------------------------------------------------------------------------------------------------------




--------------------------------------- Iteration      1(   8)  ---------------------------------------


    POTLOK:  cpu time    0.0547: real time    0.0549
    SETDIJ:  cpu time    0.0100: real time    0.0100
     EDDAV:  cpu time   28.3883: real time   28.4318
       DOS:  cpu time    0.0092: real time    0.0092
    CHARGE:  cpu time    0.3821: real time    0.3836
    MIXING:  cpu time    0.0054: real time    0.0054
    --------------------------------------------
      LOOP:  cpu time   28.8497: real time   28.8950

 eigenvalue-minimisations  :  9564
 total energy-change (2. order) :-0.5039472E+02  (-0.1329951E+03)
 number of electron     667.9999954 magnetization 
 augmentation part      256.0497749 magnetization 

 Broyden mixing:
  rms(total) = 0.16840E+02    rms(broyden)= 0.16839E+02
  rms(prec ) = 0.22649E+02
  weight for this iteration     100.00

 eigenvalues of (default mixing * dielectric matrix)
  average eigenvalue GAMMA=   0.7822
  1.8279  0.3684  0.1503

 Free energy of the ion-electron system (eV)
  ---------------------------------------------------
  alpha Z        PSCENC =      4808.69657484
  Ewald energy   TEWEN  =    -65452.34749412
  -Hartree energ DENC   =    -29276.21108325
  -exchange      EXHF   =         0.00000000
  -V(xc)+E(xc)   XCENC  =      3007.90947238
  PAW double counting   =    100372.38333415  -101501.19642184
  entropy T*S    EENTRO =        -0.06175265
  eigenvalues    EBANDS =    -11512.55970942
  atomic energy  EATOM  =     98990.52378511
  Solvation  Ediel_sol  =         0.00000000
  ---------------------------------------------------
  free energy    TOTEN  =      -562.86329481 eV

  energy without entropy =     -562.80154216  energy(sigma->0) =     -562.83241849


--------------------------------------------------------------------------------------------------------




--------------------------------------- Iteration      1(   9)  ---------------------------------------


    POTLOK:  cpu time    0.0605: real time    0.0759
    SETDIJ:  cpu time    0.0096: real time    0.0099
     EDDAV:  cpu time   27.5143: real time   27.5849
       DOS:  cpu time    0.0079: real time    0.0079
    CHARGE:  cpu time    0.3786: real time    0.3786
    MIXING:  cpu time    0.0057: real time    0.0057
    --------------------------------------------
      LOOP:  cpu time   27.9766: real time   28.0628

 eigenvalue-minimisations  :  8688
 total energy-change (2. order) : 0.3779955E+02  (-0.5041386E+02)
 number of electron     667.9999915 magnetization 
 augmentation part      262.9032514 magnetization 

 Broyden mixing:
  rms(total) = 0.10155E+02    rms(broyden)= 0.10154E+02
  rms(prec ) = 0.13351E+02
  weight for this iteration     100.00

 eigenvalues of (default mixing * dielectric matrix)
  average eigenvalue GAMMA=   0.7301
  2.0612  0.4199  0.2196  0.2196

 Free energy of the ion-electron system (eV)
  ---------------------------------------------------
  alpha Z        PSCENC =      4808.69657484
  Ewald energy   TEWEN  =    -65452.34749412
  -Hartree energ DENC   =    -28994.81731094
  -exchange      EXHF   =         0.00000000
  -V(xc)+E(xc)   XCENC  =      2999.82601979
  PAW double counting   =    103667.43120718  -104793.83722366
  entropy T*S    EENTRO =        -0.07331278
  eigenvalues    EBANDS =    -11750.46599431
  atomic energy  EATOM  =     98990.52378511
  Solvation  Ediel_sol  =         0.00000000
  ---------------------------------------------------
  free energy    TOTEN  =      -525.06374889 eV

  energy without entropy =     -524.99043611  energy(sigma->0) =     -525.02709250


--------------------------------------------------------------------------------------------------------




--------------------------------------- Iteration      1(  10)  ---------------------------------------


    POTLOK:  cpu time    0.0549: real time    0.0552
    SETDIJ:  cpu time    0.0100: real time    0.0100
     EDDAV:  cpu time   27.5374: real time   27.5673
       DOS:  cpu time    0.0079: real time    0.0079
    CHARGE:  cpu time    0.3727: real time    0.3727
    MIXING:  cpu time    0.0052: real time    0.0052
    --------------------------------------------
      LOOP:  cpu time   27.9880: real time   28.0183

 eigenvalue-minimisations  :  9228
 total energy-change (2. order) : 0.6526892E+02  (-0.2539674E+02)
 number of electron     667.9999943 magnetization 
 augmentation part      262.4014387 magnetization 

 Broyden mixing:
  rms(total) = 0.59086E+01    rms(broyden)= 0.59085E+01
  rms(prec ) = 0.87459E+01
  weight for this iteration     100.00

 eigenvalues of (default mixing * dielectric matrix)
  average eigenvalue GAMMA=   0.6705
  2.0190  0.4164  0.4164  0.3058  0.1949

 Free energy of the ion-electron system (eV)
  ---------------------------------------------------
  alpha Z        PSCENC =      4808.69657484
  Ewald energy   TEWEN  =    -65452.34749412
  -Hartree energ DENC   =    -29079.95877455
  -exchange      EXHF   =         0.00000000
  -V(xc)+E(xc)   XCENC  =      3000.46710791
  PAW double counting   =    106352.82667832  -107521.74794123
  entropy T*S    EENTRO =        -0.07818227
  eigenvalues    EBANDS =    -11558.17658773
  atomic energy  EATOM  =     98990.52378511
  Solvation  Ediel_sol  =         0.00000000
  ---------------------------------------------------
  free energy    TOTEN  =      -459.79483372 eV

  energy without entropy =     -459.71665145  energy(sigma->0) =     -459.75574259


--------------------------------------------------------------------------------------------------------




--------------------------------------- Iteration      1(  11)  ---------------------------------------


    POTLOK:  cpu time    0.0540: real time    0.0543
    SETDIJ:  cpu time    0.0098: real time    0.0098
     EDDAV:  cpu time   28.0294: real time   28.1562
       DOS:  cpu time    0.0080: real time    0.0080
    CHARGE:  cpu time    0.3766: real time    0.3766
    MIXING:  cpu time    0.0059: real time    0.0059
    --------------------------------------------
      LOOP:  cpu time   28.4837: real time   28.6107

 eigenvalue-minimisations  :  9408
 total energy-change (2. order) : 0.1866834E+02  (-0.8111477E+01)
 number of electron     667.9999910 magnetization 
 augmentation part      256.9129730 magnetization 

 Broyden mixing:
  rms(total) = 0.61536E+01    rms(broyden)= 0.61534E+01
  rms(prec ) = 0.81050E+01
  weight for this iteration     100.00

 eigenvalues of (default mixing * dielectric matrix)
  average eigenvalue GAMMA=   0.6136
  2.0368  0.4747  0.4747  0.2887  0.2032  0.2032

 Free energy of the ion-electron system (eV)
  ---------------------------------------------------
  alpha Z        PSCENC =      4808.69657484
  Ewald energy   TEWEN  =    -65452.34749412
  -Hartree energ DENC   =    -29186.31160955
  -exchange      EXHF   =         0.00000000
  -V(xc)+E(xc)   XCENC  =      3002.76689370
  PAW double counting   =    105848.72418058  -107014.46862133
  entropy T*S    EENTRO =        -0.08087263
  eigenvalues    EBANDS =    -11438.62932554
  atomic energy  EATOM  =     98990.52378511
  Solvation  Ediel_sol  =         0.00000000
  ---------------------------------------------------
  free energy    TOTEN  =      -441.12648894 eV

  energy without entropy =     -441.04561630  energy(sigma->0) =     -441.08605262


--------------------------------------------------------------------------------------------------------




--------------------------------------- Iteration      1(  12)  ---------------------------------------


    POTLOK:  cpu time    0.0541: real time    0.0541
    SETDIJ:  cpu time    0.0101: real time    0.0101
     EDDAV:  cpu time   29.2761: real time   29.3206
       DOS:  cpu time    0.0090: real time    0.0090
    CHARGE:  cpu time    0.3769: real time    0.3770
    MIXING:  cpu time    0.0062: real time    0.0062
    --------------------------------------------
      LOOP:  cpu time   29.7323: real time   29.7770

 eigenvalue-minimisations  : 10020
 total energy-change (2. order) : 0.9323163E+01  (-0.2976780E+01)
 number of electron     667.9999945 magnetization 
 augmentation part      256.1427224 magnetization 

 Broyden mixing:
  rms(total) = 0.50169E+01    rms(broyden)= 0.50168E+01
  rms(prec ) = 0.59445E+01
  weight for this iteration     100.00

 eigenvalues of (default mixing * dielectric matrix)
  average eigenvalue GAMMA=   0.5808
  2.0921  0.5339  0.5339  0.3055  0.2297  0.2297  0.1408

 Free energy of the ion-electron system (eV)
  ---------------------------------------------------
  alpha Z        PSCENC =      4808.69657484
  Ewald energy   TEWEN  =    -65452.34749412
  -Hartree energ DENC   =    -29202.17169988
  -exchange      EXHF   =         0.00000000
  -V(xc)+E(xc)   XCENC  =      3002.76856059
  PAW double counting   =    105689.49795503  -106845.91186059
  entropy T*S    EENTRO =        -0.08013383
  eigenvalues    EBANDS =    -11422.77901307
  atomic energy  EATOM  =     98990.52378511
  Solvation  Ediel_sol  =         0.00000000
  ---------------------------------------------------
  free energy    TOTEN  =      -431.80332595 eV

  energy without entropy =     -431.72319211  energy(sigma->0) =     -431.76325903


--------------------------------------------------------------------------------------------------------




--------------------------------------- Iteration      1(  13)  ---------------------------------------


    POTLOK:  cpu time    0.0543: real time    0.0543
    SETDIJ:  cpu time    0.0098: real time    0.0098
     EDDAV:  cpu time   28.2628: real time   28.3516
       DOS:  cpu time    0.0072: real time    0.0072
    CHARGE:  cpu time    0.3815: real time    0.3815
    MIXING:  cpu time    0.0064: real time    0.0064
    --------------------------------------------
      LOOP:  cpu time   28.7219: real time   28.8107

 eigenvalue-minimisations  :  9456
 total energy-change (2. order) : 0.3667256E+01  (-0.8033149E+00)
 number of electron     667.9999940 magnetization 
 augmentation part      255.6223421 magnetization 

 Broyden mixing:
  rms(total) = 0.46434E+01    rms(broyden)= 0.46434E+01
  rms(prec ) = 0.53602E+01
  weight for this iteration     100.00

 eigenvalues of (default mixing * dielectric matrix)
  average eigenvalue GAMMA=   0.6077
  2.1254  0.7389  0.7389  0.2969  0.2969  0.2747  0.1948  0.1948

 Free energy of the ion-electron system (eV)
  ---------------------------------------------------
  alpha Z        PSCENC =      4808.69657484
  Ewald energy   TEWEN  =    -65452.34749412
  -Hartree energ DENC   =    -29215.57932609
  -exchange      EXHF   =         0.00000000
  -V(xc)+E(xc)   XCENC  =      3002.74686522
  PAW double counting   =    105764.84943114  -106915.68481461
  entropy T*S    EENTRO =        -0.08003733
  eigenvalues    EBANDS =    -11411.26105371
  atomic energy  EATOM  =     98990.52378511
  Solvation  Ediel_sol  =         0.00000000
  ---------------------------------------------------
  free energy    TOTEN  =      -428.13606956 eV

  energy without entropy =     -428.05603223  energy(sigma->0) =     -428.09605090


--------------------------------------------------------------------------------------------------------




--------------------------------------- Iteration      1(  14)  ---------------------------------------


    POTLOK:  cpu time    0.0551: real time    0.0551
    SETDIJ:  cpu time    0.0097: real time    0.0098
     EDDAV:  cpu time   27.0756: real time   27.1284
       DOS:  cpu time    0.0079: real time    0.0079
    CHARGE:  cpu time    0.3760: real time    0.3760
    MIXING:  cpu time    0.0067: real time    0.0067
    --------------------------------------------
      LOOP:  cpu time   27.5310: real time   27.5839

 eigenvalue-minimisations  :  8952
 total energy-change (2. order) : 0.3676745E+01  (-0.6905042E+00)
 number of electron     667.9999943 magnetization 
 augmentation part      255.9884418 magnetization 

 Broyden mixing:
  rms(total) = 0.37714E+01    rms(broyden)= 0.37714E+01
  rms(prec ) = 0.43011E+01
  weight for this iteration     100.00

 eigenvalues of (default mixing * dielectric matrix)
  average eigenvalue GAMMA=   0.6442
  2.0787  0.9916  0.9916  0.4265  0.4265  0.2699  0.2159  0.1988  0.1988

 Free energy of the ion-electron system (eV)
  ---------------------------------------------------
  alpha Z        PSCENC =      4808.69657484
  Ewald energy   TEWEN  =    -65452.34749412
  -Hartree energ DENC   =    -29199.34225033
  -exchange      EXHF   =         0.00000000
  -V(xc)+E(xc)   XCENC  =      3001.60890962
  PAW double counting   =    105408.78856327  -106523.47870880
  entropy T*S    EENTRO =        -0.08938959
  eigenvalues    EBANDS =    -11458.81931470
  atomic energy  EATOM  =     98990.52378511
  Solvation  Ediel_sol  =         0.00000000
  ---------------------------------------------------
  free energy    TOTEN  =      -424.45932470 eV

  energy without entropy =     -424.36993511  energy(sigma->0) =     -424.41462991


--------------------------------------------------------------------------------------------------------




--------------------------------------- Iteration      1(  15)  ---------------------------------------


    POTLOK:  cpu time    0.0547: real time    0.0547
    SETDIJ:  cpu time    0.0100: real time    0.0100
     EDDAV:  cpu time   30.2626: real time   30.4330
       DOS:  cpu time    0.0086: real time    0.0085
    CHARGE:  cpu time    0.3768: real time    0.3769
    MIXING:  cpu time    0.0073: real time    0.0073
    --------------------------------------------
      LOOP:  cpu time   30.7199: real time   30.8904

 eigenvalue-minimisations  :  9948
 total energy-change (2. order) : 0.1456559E+01  (-0.8515591E+00)
 number of electron     667.9999935 magnetization 
 augmentation part      255.8256472 magnetization 

 Broyden mixing:
  rms(total) = 0.31522E+01    rms(broyden)= 0.31521E+01
  rms(prec ) = 0.36017E+01
  weight for this iteration     100.00

 eigenvalues of (default mixing * dielectric matrix)
  average eigenvalue GAMMA=   0.6748
  2.0023  1.2587  1.2587  0.5438  0.5438  0.2744  0.2744  0.2153  0.1882  0.1882

 Free energy of the ion-electron system (eV)
  ---------------------------------------------------
  alpha Z        PSCENC =      4808.69657484
  Ewald energy   TEWEN  =    -65452.34749412
  -Hartree energ DENC   =    -29216.80198334
  -exchange      EXHF   =         0.00000000
  -V(xc)+E(xc)   XCENC  =      3001.71070947
  PAW double counting   =    104823.35032426  -105907.17207743
  entropy T*S    EENTRO =        -0.08833510
  eigenvalues    EBANDS =    -11470.87426975
  atomic energy  EATOM  =     98990.52378511
  Solvation  Ediel_sol  =         0.00000000
  ---------------------------------------------------
  free energy    TOTEN  =      -423.00276607 eV

  energy without entropy =     -422.91443097  energy(sigma->0) =     -422.95859852


--------------------------------------------------------------------------------------------------------




--------------------------------------- Iteration      1(  16)  ---------------------------------------


    POTLOK:  cpu time    0.0541: real time    0.0541
    SETDIJ:  cpu time    0.0100: real time    0.0100
     EDDAV:  cpu time   29.0846: real time   29.1072
       DOS:  cpu time    0.0083: real time    0.0083
    CHARGE:  cpu time    0.3775: real time    0.3775
    MIXING:  cpu time    0.0075: real time    0.0075
    --------------------------------------------
      LOOP:  cpu time   29.5419: real time   29.5646

 eigenvalue-minimisations  :  9936
 total energy-change (2. order) : 0.1578169E+01  (-0.1111687E+01)
 number of electron     667.9999930 magnetization 
 augmentation part      255.2448195 magnetization 

 Broyden mixing:
  rms(total) = 0.22441E+01    rms(broyden)= 0.22440E+01
  rms(prec ) = 0.26173E+01
  weight for this iteration     100.00

 eigenvalues of (default mixing * dielectric matrix)
  average eigenvalue GAMMA=   0.6770
  2.1465  1.2432  1.2432  0.6812  0.6812  0.3259  0.3259  0.2106  0.2106  0.1895
  0.1895

 Free energy of the ion-electron system (eV)
  ---------------------------------------------------
  alpha Z        PSCENC =      4808.69657484
  Ewald energy   TEWEN  =    -65452.34749412
  -Hartree energ DENC   =    -29276.53915808
  -exchange      EXHF   =         0.00000000
  -V(xc)+E(xc)   XCENC  =      3002.77973769
  PAW double counting   =    103873.72133616  -104903.72834436
  entropy T*S    EENTRO =        -0.08966601
  eigenvalues    EBANDS =    -11464.44136867
  atomic energy  EATOM  =     98990.52378511
  Solvation  Ediel_sol  =         0.00000000
  ---------------------------------------------------
  free energy    TOTEN  =      -421.42459743 eV

  energy without entropy =     -421.33493143  energy(sigma->0) =     -421.37976443


--------------------------------------------------------------------------------------------------------




--------------------------------------- Iteration      1(  17)  ---------------------------------------


    POTLOK:  cpu time    0.0552: real time    0.0552
    SETDIJ:  cpu time    0.0100: real time    0.0100
     EDDAV:  cpu time   29.4867: real time   29.6231
       DOS:  cpu time    0.0075: real time    0.0075
    CHARGE:  cpu time    0.3842: real time    0.3842
    MIXING:  cpu time    0.0075: real time    0.0075
    --------------------------------------------
      LOOP:  cpu time   29.9511: real time   30.0876

 eigenvalue-minimisations  : 10044
 total energy-change (2. order) :-0.4292822E+00  (-0.1022486E+01)
 number of electron     667.9999952 magnetization 
 augmentation part      255.5053536 magnetization 

 Broyden mixing:
  rms(total) = 0.17523E+01    rms(broyden)= 0.17521E+01
  rms(prec ) = 0.23649E+01
  weight for this iteration     100.00

 eigenvalues of (default mixing * dielectric matrix)
  average eigenvalue GAMMA=   0.6594
  2.2237  1.2444  1.2444  0.7562  0.7562  0.3452  0.3452  0.2280  0.2280  0.1864
  0.1774  0.1774

 Free energy of the ion-electron system (eV)
  ---------------------------------------------------
  alpha Z        PSCENC =      4808.69657484
  Ewald energy   TEWEN  =    -65452.34749412
  -Hartree energ DENC   =    -29273.90431050
  -exchange      EXHF   =         0.00000000
  -V(xc)+E(xc)   XCENC  =      3002.41118031
  PAW double counting   =    103428.07447082  -104421.07462074
  entropy T*S    EENTRO =        -0.09047961
  eigenvalues    EBANDS =    -11504.14298572
  atomic energy  EATOM  =     98990.52378511
  Solvation  Ediel_sol  =         0.00000000
  ---------------------------------------------------
  free energy    TOTEN  =      -421.85387961 eV

  energy without entropy =     -421.76340000  energy(sigma->0) =     -421.80863981


--------------------------------------------------------------------------------------------------------




--------------------------------------- Iteration      1(  18)  ---------------------------------------


    POTLOK:  cpu time    0.0547: real time    0.0547
    SETDIJ:  cpu time    0.0098: real time    0.0098
     EDDAV:  cpu time   29.2983: real time   29.3202
       DOS:  cpu time    0.0071: real time    0.0071
    CHARGE:  cpu time    0.3774: real time    0.3775
    MIXING:  cpu time    0.0079: real time    0.0079
    --------------------------------------------
      LOOP:  cpu time   29.7553: real time   29.7773

 eigenvalue-minimisations  : 10044
 total energy-change (2. order) : 0.1032715E+01  (-0.4190932E+00)
 number of electron     667.9999938 magnetization 
 augmentation part      255.9437466 magnetization 

 Broyden mixing:
  rms(total) = 0.10507E+01    rms(broyden)= 0.10506E+01
  rms(prec ) = 0.13298E+01
  weight for this iteration     100.00

 eigenvalues of (default mixing * dielectric matrix)
  average eigenvalue GAMMA=   0.6750
  1.9900  1.9900  0.8994  0.8994  0.8856  0.4232  0.4232  0.2556  0.2556  0.1988
  0.1988  0.1868  0.1683

 Free energy of the ion-electron system (eV)
  ---------------------------------------------------
  alpha Z        PSCENC =      4808.69657484
  Ewald energy   TEWEN  =    -65452.34749412
  -Hartree energ DENC   =    -29254.16690747
  -exchange      EXHF   =         0.00000000
  -V(xc)+E(xc)   XCENC  =      3002.02184232
  PAW double counting   =    103459.30369720  -104450.80848064
  entropy T*S    EENTRO =        -0.09143555
  eigenvalues    EBANDS =    -11523.95274637
  atomic energy  EATOM  =     98990.52378511
  Solvation  Ediel_sol  =         0.00000000
  ---------------------------------------------------
  free energy    TOTEN  =      -420.82116469 eV

  energy without entropy =     -420.72972914  energy(sigma->0) =     -420.77544692


--------------------------------------------------------------------------------------------------------




--------------------------------------- Iteration      1(  19)  ---------------------------------------


    POTLOK:  cpu time    0.0548: real time    0.0551
    SETDIJ:  cpu time    0.0100: real time    0.0100
     EDDAV:  cpu time   29.5355: real time   29.6266
       DOS:  cpu time    0.0085: real time    0.0085
    CHARGE:  cpu time    0.3761: real time    0.3761
    MIXING:  cpu time    0.0080: real time    0.0080
    --------------------------------------------
      LOOP:  cpu time   29.9929: real time   30.0843

 eigenvalue-minimisations  : 10068
 total energy-change (2. order) :-0.2000600E+00  (-0.2232956E+00)
 number of electron     667.9999945 magnetization 
 augmentation part      255.5169854 magnetization 

 Broyden mixing:
  rms(total) = 0.11286E+01    rms(broyden)= 0.11285E+01
  rms(prec ) = 0.15394E+01
  weight for this iteration     100.00

 eigenvalues of (default mixing * dielectric matrix)
  average eigenvalue GAMMA=   0.6937
  2.1939  2.1939  1.0287  1.0287  0.7664  0.4988  0.4988  0.2789  0.2789  0.2097
  0.2097  0.1830  0.1830  0.1587

 Free energy of the ion-electron system (eV)
  ---------------------------------------------------
  alpha Z        PSCENC =      4808.69657484
  Ewald energy   TEWEN  =    -65452.34749412
  -Hartree energ DENC   =    -29280.68979318
  -exchange      EXHF   =         0.00000000
  -V(xc)+E(xc)   XCENC  =      3002.96163360
  PAW double counting   =    103191.48024284  -104172.00594043
  entropy T*S    EENTRO =        -0.09133530
  eigenvalues    EBANDS =    -11509.54889801
  atomic energy  EATOM  =     98990.52378511
  Solvation  Ediel_sol  =         0.00000000
  ---------------------------------------------------
  free energy    TOTEN  =      -421.02122466 eV

  energy without entropy =     -420.92988936  energy(sigma->0) =     -420.97555701


--------------------------------------------------------------------------------------------------------




--------------------------------------- Iteration      1(  20)  ---------------------------------------


    POTLOK:  cpu time    0.0552: real time    0.0552
    SETDIJ:  cpu time    0.0100: real time    0.0100
     EDDAV:  cpu time   28.8397: real time   28.9479
       DOS:  cpu time    0.0083: real time    0.0083
    CHARGE:  cpu time    0.3790: real time    0.3791
    MIXING:  cpu time    0.0089: real time    0.0089
    --------------------------------------------
      LOOP:  cpu time   29.3011: real time   29.4094

 eigenvalue-minimisations  :  9840
 total energy-change (2. order) : 0.3797532E+00  (-0.1462100E+00)
 number of electron     667.9999940 magnetization 
 augmentation part      255.3330843 magnetization 

 Broyden mixing:
  rms(total) = 0.78092E+00    rms(broyden)= 0.78086E+00
  rms(prec ) = 0.10024E+01
  weight for this iteration     100.00

 eigenvalues of (default mixing * dielectric matrix)
  average eigenvalue GAMMA=   0.7142
  2.3683  2.3683  1.1132  1.1132  0.7498  0.6017  0.6017  0.3228  0.3228  0.2223
  0.2223  0.1845  0.1845  0.1857  0.1516

 Free energy of the ion-electron system (eV)
  ---------------------------------------------------
  alpha Z        PSCENC =      4808.69657484
  Ewald energy   TEWEN  =    -65452.34749412
  -Hartree energ DENC   =    -29294.09532863
  -exchange      EXHF   =         0.00000000
  -V(xc)+E(xc)   XCENC  =      3003.67259134
  PAW double counting   =    103108.63793211  -104088.85362751
  entropy T*S    EENTRO =        -0.08959494
  eigenvalues    EBANDS =    -11496.78630965
  atomic energy  EATOM  =     98990.52378511
  Solvation  Ediel_sol  =         0.00000000
  ---------------------------------------------------
  free energy    TOTEN  =      -420.64147144 eV

  energy without entropy =     -420.55187651  energy(sigma->0) =     -420.59667397


--------------------------------------------------------------------------------------------------------




--------------------------------------- Iteration      1(  21)  ---------------------------------------


    POTLOK:  cpu time    0.0544: real time    0.0545
    SETDIJ:  cpu time    0.0099: real time    0.0099
     EDDAV:  cpu time   30.3025: real time   30.5817
       DOS:  cpu time    0.0078: real time    0.0078
    CHARGE:  cpu time    0.3834: real time    0.3834
    MIXING:  cpu time    0.0088: real time    0.0088
    --------------------------------------------
      LOOP:  cpu time   30.7668: real time   31.0461

 eigenvalue-minimisations  : 10104
 total energy-change (2. order) :-0.4929450E-01  (-0.1512752E+00)
 number of electron     667.9999937 magnetization 
 augmentation part      255.4823522 magnetization 

 Broyden mixing:
  rms(total) = 0.70999E+00    rms(broyden)= 0.70992E+00
  rms(prec ) = 0.99308E+00
  weight for this iteration     100.00

 eigenvalues of (default mixing * dielectric matrix)
  average eigenvalue GAMMA=   0.7153
  2.4667  2.4667  1.1773  1.1773  0.7357  0.6837  0.6837  0.3426  0.3426  0.2329
  0.2329  0.2003  0.2003  0.1779  0.1779  0.1466

 Free energy of the ion-electron system (eV)
  ---------------------------------------------------
  alpha Z        PSCENC =      4808.69657484
  Ewald energy   TEWEN  =    -65452.34749412
  -Hartree energ DENC   =    -29295.47141060
  -exchange      EXHF   =         0.00000000
  -V(xc)+E(xc)   XCENC  =      3003.84618415
  PAW double counting   =    103050.40821314  -104025.88011517
  entropy T*S    EENTRO =        -0.09237138
  eigenvalues    EBANDS =    -11500.37413191
  atomic energy  EATOM  =     98990.52378511
  Solvation  Ediel_sol  =         0.00000000
  ---------------------------------------------------
  free energy    TOTEN  =      -420.69076595 eV

  energy without entropy =     -420.59839457  energy(sigma->0) =     -420.64458026


--------------------------------------------------------------------------------------------------------




--------------------------------------- Iteration      1(  22)  ---------------------------------------


    POTLOK:  cpu time    0.0552: real time    0.0553
    SETDIJ:  cpu time    0.0098: real time    0.0098
     EDDAV:  cpu time   29.3426: real time   29.3655
       DOS:  cpu time    0.0081: real time    0.0081
    CHARGE:  cpu time    0.3765: real time    0.3765
    MIXING:  cpu time    0.0089: real time    0.0088
    --------------------------------------------
      LOOP:  cpu time   29.8011: real time   29.8240

 eigenvalue-minimisations  : 10068
 total energy-change (2. order) : 0.1286346E+00  (-0.8225188E-01)
 number of electron     667.9999940 magnetization 
 augmentation part      255.4930042 magnetization 

 Broyden mixing:
  rms(total) = 0.54116E+00    rms(broyden)= 0.54112E+00
  rms(prec ) = 0.73440E+00
  weight for this iteration     100.00

 eigenvalues of (default mixing * dielectric matrix)
  average eigenvalue GAMMA=   0.6988
  2.4350  2.4350  1.2024  1.2024  0.8178  0.7236  0.7236  0.3673  0.3673  0.2487
  0.2487  0.2043  0.2043  0.1961  0.1793  0.1718  0.1521

 Free energy of the ion-electron system (eV)
  ---------------------------------------------------
  alpha Z        PSCENC =      4808.69657484
  Ewald energy   TEWEN  =    -65452.34749412
  -Hartree energ DENC   =    -29296.18622995
  -exchange      EXHF   =         0.00000000
  -V(xc)+E(xc)   XCENC  =      3003.91284282
  PAW double counting   =    103081.89366332  -104055.27366192
  entropy T*S    EENTRO =        -0.09065428
  eigenvalues    EBANDS =    -11501.69095717
  atomic energy  EATOM  =     98990.52378511
  Solvation  Ediel_sol  =         0.00000000
  ---------------------------------------------------
  free energy    TOTEN  =      -420.56213135 eV

  energy without entropy =     -420.47147708  energy(sigma->0) =     -420.51680421


--------------------------------------------------------------------------------------------------------




--------------------------------------- Iteration      1(  23)  ---------------------------------------


    POTLOK:  cpu time    0.0538: real time    0.0540
    SETDIJ:  cpu time    0.0101: real time    0.0101
     EDDAV:  cpu time   28.8779: real time   29.0106
       DOS:  cpu time    0.0080: real time    0.0080
    CHARGE:  cpu time    0.3768: real time    0.3769
    MIXING:  cpu time    0.0089: real time    0.0089
    --------------------------------------------
      LOOP:  cpu time   29.3354: real time   29.4685

 eigenvalue-minimisations  :  9780
 total energy-change (2. order) : 0.1134285E+00  (-0.2910417E-01)
 number of electron     667.9999938 magnetization 
 augmentation part      255.5729260 magnetization 

 Broyden mixing:
  rms(total) = 0.35877E+00    rms(broyden)= 0.35875E+00
  rms(prec ) = 0.46344E+00
  weight for this iteration     100.00

 eigenvalues of (default mixing * dielectric matrix)
  average eigenvalue GAMMA=   0.6912
  2.4399  2.4399  1.2023  1.2023  0.8981  0.7890  0.7890  0.4001  0.4001  0.2733
  0.2733  0.2222  0.2222  0.2022  0.1849  0.1849  0.1706  0.1475

 Free energy of the ion-electron system (eV)
  ---------------------------------------------------
  alpha Z        PSCENC =      4808.69657484
  Ewald energy   TEWEN  =    -65452.34749412
  -Hartree energ DENC   =    -29290.56343414
  -exchange      EXHF   =         0.00000000
  -V(xc)+E(xc)   XCENC  =      3003.81995721
  PAW double counting   =    103157.46951743  -104134.12722898
  entropy T*S    EENTRO =        -0.09048259
  eigenvalues    EBANDS =    -11503.82989761
  atomic energy  EATOM  =     98990.52378511
  Solvation  Ediel_sol  =         0.00000000
  ---------------------------------------------------
  free energy    TOTEN  =      -420.44870285 eV

  energy without entropy =     -420.35822026  energy(sigma->0) =     -420.40346155


--------------------------------------------------------------------------------------------------------




--------------------------------------- Iteration      1(  24)  ---------------------------------------


    POTLOK:  cpu time    0.0538: real time    0.0540
    SETDIJ:  cpu time    0.0099: real time    0.0099
     EDDAV:  cpu time   27.5786: real time   27.6510
       DOS:  cpu time    0.0070: real time    0.0070
    CHARGE:  cpu time    0.3800: real time    0.3802
    MIXING:  cpu time    0.0101: real time    0.0101
    --------------------------------------------
      LOOP:  cpu time   28.0394: real time   28.1123

 eigenvalue-minimisations  :  9180
 total energy-change (2. order) : 0.3245563E-01  (-0.1138670E-01)
 number of electron     667.9999938 magnetization 
 augmentation part      255.6397723 magnetization 

 Broyden mixing:
  rms(total) = 0.25763E+00    rms(broyden)= 0.25762E+00
  rms(prec ) = 0.32423E+00
  weight for this iteration     100.00

 eigenvalues of (default mixing * dielectric matrix)
  average eigenvalue GAMMA=   0.6938
  2.5254  2.5254  1.2298  1.2298  0.8845  0.8845  0.8106  0.4586  0.4586  0.3146
  0.3146  0.2284  0.2284  0.2079  0.1947  0.1947  0.1775  0.1651  0.1494

 Free energy of the ion-electron system (eV)
  ---------------------------------------------------
  alpha Z        PSCENC =      4808.69657484
  Ewald energy   TEWEN  =    -65452.34749412
  -Hartree energ DENC   =    -29288.27448878
  -exchange      EXHF   =         0.00000000
  -V(xc)+E(xc)   XCENC  =      3003.80200736
  PAW double counting   =    103204.41794751  -104183.07940451
  entropy T*S    EENTRO =        -0.09069775
  eigenvalues    EBANDS =    -11504.06447688
  atomic energy  EATOM  =     98990.52378511
  Solvation  Ediel_sol  =         0.00000000
  ---------------------------------------------------
  free energy    TOTEN  =      -420.41624722 eV

  energy without entropy =     -420.32554947  energy(sigma->0) =     -420.37089834


--------------------------------------------------------------------------------------------------------




--------------------------------------- Iteration      1(  25)  ---------------------------------------


    POTLOK:  cpu time    0.0559: real time    0.0559
    SETDIJ:  cpu time    0.0099: real time    0.0099
     EDDAV:  cpu time   29.0267: real time   29.3343
       DOS:  cpu time    0.0073: real time    0.0073
    CHARGE:  cpu time    0.3842: real time    0.3843
    MIXING:  cpu time    0.0102: real time    0.0102
    --------------------------------------------
      LOOP:  cpu time   29.4942: real time   29.8019

 eigenvalue-minimisations  :  9660
 total energy-change (2. order) : 0.6584245E-02  (-0.4992821E-02)
 number of electron     667.9999938 magnetization 
 augmentation part      255.6420230 magnetization 

 Broyden mixing:
  rms(total) = 0.21228E+00    rms(broyden)= 0.21227E+00
  rms(prec ) = 0.26101E+00
  weight for this iteration     100.00

 eigenvalues of (default mixing * dielectric matrix)
  average eigenvalue GAMMA=   0.7200
  2.6368  2.6368  1.3700  1.3700  1.0311  1.0311  0.7436  0.5609  0.5609  0.3369
  0.3369  0.2414  0.2414  0.2097  0.2097  0.2021  0.1816  0.1816  0.1686  0.1484

 Free energy of the ion-electron system (eV)
  ---------------------------------------------------
  alpha Z        PSCENC =      4808.69657484
  Ewald energy   TEWEN  =    -65452.34749412
  -Hartree energ DENC   =    -29289.71136696
  -exchange      EXHF   =         0.00000000
  -V(xc)+E(xc)   XCENC  =      3003.86748259
  PAW double counting   =    103222.34963158  -104201.25746687
  entropy T*S    EENTRO =        -0.09065144
  eigenvalues    EBANDS =    -11502.44015771
  atomic energy  EATOM  =     98990.52378511
  Solvation  Ediel_sol  =         0.00000000
  ---------------------------------------------------
  free energy    TOTEN  =      -420.40966297 eV

  energy without entropy =     -420.31901153  energy(sigma->0) =     -420.36433725


--------------------------------------------------------------------------------------------------------




--------------------------------------- Iteration      1(  26)  ---------------------------------------


    POTLOK:  cpu time    0.0541: real time    0.0542
    SETDIJ:  cpu time    0.0098: real time    0.0098
     EDDAV:  cpu time   29.0517: real time   29.1123
       DOS:  cpu time    0.0077: real time    0.0078
    CHARGE:  cpu time    0.3770: real time    0.3770
    MIXING:  cpu time    0.0106: real time    0.0106
    --------------------------------------------
      LOOP:  cpu time   29.5109: real time   29.5716

 eigenvalue-minimisations  :  9852
 total energy-change (2. order) : 0.4872088E-02  (-0.3309033E-02)
 number of electron     667.9999938 magnetization 
 augmentation part      255.6272099 magnetization 

 Broyden mixing:
  rms(total) = 0.16181E+00    rms(broyden)= 0.16181E+00
  rms(prec ) = 0.21159E+00
  weight for this iteration     100.00

 eigenvalues of (default mixing * dielectric matrix)
  average eigenvalue GAMMA=   0.7252
  2.6318  2.6318  1.5435  1.5435  1.0581  1.0581  0.7453  0.6062  0.6062  0.3752
  0.3752  0.2700  0.2700  0.2184  0.2184  0.2066  0.1485  0.1900  0.1900  0.1757
  0.1665

 Free energy of the ion-electron system (eV)
  ---------------------------------------------------
  alpha Z        PSCENC =      4808.69657484
  Ewald energy   TEWEN  =    -65452.34749412
  -Hartree energ DENC   =    -29289.62548807
  -exchange      EXHF   =         0.00000000
  -V(xc)+E(xc)   XCENC  =      3003.87233502
  PAW double counting   =    103263.03821434  -104241.77385741
  entropy T*S    EENTRO =        -0.09108915
  eigenvalues    EBANDS =    -11502.69777144
  atomic energy  EATOM  =     98990.52378511
  Solvation  Ediel_sol  =         0.00000000
  ---------------------------------------------------
  free energy    TOTEN  =      -420.40479089 eV

  energy without entropy =     -420.31370174  energy(sigma->0) =     -420.35924631


--------------------------------------------------------------------------------------------------------




--------------------------------------- Iteration      1(  27)  ---------------------------------------


    POTLOK:  cpu time    0.0544: real time    0.0547
    SETDIJ:  cpu time    0.0101: real time    0.0101
     EDDAV:  cpu time   29.7582: real time   29.8252
       DOS:  cpu time    0.0082: real time    0.0082
[...]
-27.589  -0.016   0.008 -26.488  -0.015   0.008  -0.000  -0.002
 -0.016 -27.582   0.006  -0.015 -26.481   0.006   0.001   0.005
  0.008   0.006 -27.576   0.008   0.006 -26.475   0.002   0.001
-26.488  -0.015   0.008 -25.455  -0.015   0.007  -0.000  -0.002
 -0.015 -26.481   0.006  -0.015 -25.449   0.006   0.001   0.005
  0.008   0.006 -26.475   0.007   0.006 -25.443   0.002   0.001
 -0.000   0.001   0.002  -0.000   0.001   0.002  -5.190   0.001
 -0.002   0.005   0.001  -0.002   0.005   0.001   0.001  -5.192
 -0.001   0.005   0.001  -0.001   0.005   0.001  -0.003  -0.002
  0.001  -0.002   0.004   0.001  -0.001   0.004  -0.004   0.000
 -0.006   0.003  -0.003  -0.005   0.003  -0.003  -0.000   0.002
 -0.000   0.002   0.003  -0.000   0.002   0.003  -6.646   0.001
 -0.002   0.007   0.002  -0.002   0.007   0.002   0.001  -6.649
 -0.002   0.006   0.002  -0.002   0.006   0.002  -0.003  -0.002
  0.002  -0.002   0.005   0.002  -0.002   0.005  -0.005   0.000
 -0.007   0.004  -0.005  -0.007   0.004  -0.004  -0.000   0.003
 -0.003  -0.000   0.001  -0.003  -0.000   0.001  -0.004   0.004
 -0.005   0.000   0.003  -0.005   0.000   0.003  -0.006   0.008
 total augmentation occupancy for first ion, spin component:           1
 24.573  -1.443   0.758 -22.560   1.469  -0.732   1.370  -1.044   0.277   0.557  -0.447  -0.739   0.465  -0.146  -0.253   0.130
 -1.443  23.185   0.585   1.469 -21.187  -0.608   0.352  -1.063  -0.506   0.287   0.353  -0.178   0.607   0.273  -0.244  -0.124
  0.758   0.585  26.103  -0.732  -0.609 -24.102  -1.815   0.203  -0.467  -0.215  -0.559   0.926  -0.108   0.268   0.151   0.137
-22.560   1.469  -0.732  22.535  -1.496   0.706  -1.401   1.094  -0.290  -0.572   0.456   0.761  -0.499   0.157   0.263  -0.133
  1.469 -21.187  -0.609  -1.496  21.177   0.633  -0.366   1.078   0.509  -0.298  -0.377   0.187  -0.621  -0.277   0.253   0.140
 -0.732  -0.608 -24.102   0.706   0.633  24.089   1.861  -0.215   0.472   0.215   0.571  -0.960   0.117  -0.273  -0.153  -0.142
  1.370   0.352  -1.815  -1.401  -0.366   1.861   3.830  -0.001  -0.060  -0.355  -0.057  -1.964   0.005   0.005   0.177   0.037
 -1.044  -1.063   0.203   1.094   1.078  -0.215  -0.001   3.573  -0.090  -0.448   0.028   0.004  -1.819   0.045   0.232  -0.010
  0.277  -0.506  -0.467  -0.290   0.509   0.472  -0.060  -0.090   3.762   0.058  -0.011   0.004   0.044  -1.899  -0.051   0.022
  0.557   0.287  -0.215  -0.572  -0.298   0.215  -0.355  -0.448   0.058   4.090   0.401   0.177   0.230  -0.051  -2.084  -0.222
 -0.447   0.353  -0.559   0.456  -0.377   0.571  -0.057   0.028  -0.011   0.401   3.762   0.037  -0.010   0.022  -0.222  -1.933
 -0.739  -0.178   0.926   0.761   0.187  -0.960  -1.964   0.004   0.004   0.177   0.037   1.019  -0.002   0.013  -0.089  -0.021
  0.465   0.607  -0.108  -0.499  -0.621   0.117   0.005  -1.819   0.044   0.230  -0.010  -0.002   0.939  -0.022  -0.122   0.003
 -0.146   0.273   0.268   0.157  -0.277  -0.273   0.005   0.045  -1.899  -0.051   0.022   0.013  -0.022   0.972   0.035  -0.020
 -0.253  -0.244   0.151   0.263   0.253  -0.153   0.177   0.232  -0.051  -2.084  -0.222  -0.089  -0.122   0.035   1.074   0.121
  0.130  -0.124   0.137  -0.133   0.140  -0.142   0.037  -0.010   0.022  -0.222  -1.933  -0.021   0.003  -0.020   0.121   1.006
 -0.291  -0.438   0.121   0.345   0.466  -0.137   0.008  -0.158  -0.012   0.245   0.115   0.014   0.086   0.019  -0.139  -0.070
  0.022   0.018  -0.029  -0.053  -0.032   0.039  -0.015   0.042   0.013  -0.037  -0.030   0.004  -0.021  -0.008   0.021   0.016


------------------------ aborting loop because EDIFF is reached ----------------------------------------


    CHARGE:  cpu time    0.3757: real time    0.3759
    FORLOC:  cpu time    0.0134: real time    0.0134
    FORNL :  cpu time    2.5378: real time    2.5392
    STRESS:  cpu time    7.6014: real time    7.6058
    FORCOR:  cpu time    0.0611: real time    0.0611
    FORHAR:  cpu time    0.0372: real time    0.0372
    MIXING:  cpu time    0.0137: real time    0.0137
    OFIELD:  cpu time    0.0000: real time    0.0000

  FORCE on cell =-STRESS in cart. coord.  units (eV):
  Direction    XX          YY          ZZ          XY          YZ          ZX
  --------------------------------------------------------------------------------------
  Alpha Z  4808.69657  4808.69657  4808.69657
  Ewald  -22175.04709-20912.10602-22365.54180   404.92985  -477.42970  -626.45935
  Hartree  9671.53712 10417.21006  9198.48306   560.59751  -229.29363  -548.49960
  E(xc)   -3775.87093 -3774.75327 -3775.87294    -0.45963    -0.23793    -0.42774
  Local     905.34381 -1072.21692  1587.83372  -970.71677   690.71320  1181.52654
  n-local -2917.57203 -2949.69284 -2926.54337    21.97447     6.87591    -1.11853
  augment  4048.02860  4053.14239  4048.75224    -4.00785     1.44848     0.53414
  Kinetic  9458.38122  9479.85459  9462.36196   -20.17714    -0.83927    -0.62601
  Fock        0.00000     0.00000     0.00000     0.00000     0.00000     0.00000
  -------------------------------------------------------------------------------------
  Total      23.49727    50.13457    38.16944    -7.85956    -8.76293     4.92947
  in kB      41.88492    89.36706    68.03871   -14.01000   -15.62031     8.78699
  external pressure =       66.43 kB  Pullay stress =        0.00 kB


 VOLUME and BASIS-vectors are now :
 -----------------------------------------------------------------------------
  energy-cutoff  :      500.00
  volume of cell :      898.82
      direct lattice vectors                 reciprocal lattice vectors
    10.294803000  0.536294000 -0.031127000     0.097409649 -0.005250193 -0.000080434
     0.502912000  9.327173000  0.236536000    -0.005607324  0.107553460 -0.001478581
     0.014753000  0.129860000  9.390196000     0.000464144 -0.002726640  0.106531028

  length of vectors
    10.308809289  9.343715852  9.391105483     0.097551067  0.107709679  0.106566927


 FORCES acting on ions
    electron-ion (+dipol)            ewald-force                    non-local-force                 convergence-correction
 -----------------------------------------------------------------------------------------------
   -.157E+03 0.169E+03 -.930E+01   0.157E+03 -.167E+03 0.994E+01   0.112E+00 -.134E+01 -.133E+01   -.236E-02 0.832E-02 -.135E-04
   -.174E+03 -.316E+02 0.581E+02   0.173E+03 0.312E+02 -.585E+02   0.146E+00 0.548E+00 -.628E+00   -.167E-02 -.111E-01 0.353E-02
   -.744E+02 -.533E+02 -.144E+03   0.741E+02 0.543E+02 0.143E+03   0.873E+00 -.132E+01 0.812E+00   -.752E-02 -.415E-02 0.176E-02
   -.777E+02 0.677E+02 -.231E+03   0.782E+02 -.686E+02 0.232E+03   -.872E+00 0.133E+01 -.295E+00   0.106E-02 0.168E-02 -.311E-02
   0.101E+03 -.211E+02 -.284E+03   -.101E+03 0.201E+02 0.283E+03   0.684E-02 0.133E+01 0.108E+01   0.112E-02 0.335E-02 -.974E-03
   -.146E+03 0.977E+02 0.232E+03   0.146E+03 -.983E+02 -.232E+03   0.548E+00 0.138E+01 -.686E+00   -.512E-04 0.688E-02 -.619E-02
   -.306E+02 -.333E+00 -.214E+03   0.311E+02 0.138E+00 0.214E+03   -.567E+00 -.178E+00 -.129E+01   -.483E-02 0.387E-02 -.348E-02
   -.131E+02 0.165E+03 -.140E+03   0.132E+02 -.165E+03 0.140E+03   -.225E+00 0.699E+00 -.760E+00   -.594E-03 0.645E-02 0.466E-02
   0.962E+02 -.632E+02 -.423E+01   -.959E+02 0.630E+02 0.461E+01   0.325E+00 -.328E+00 -.182E+01   -.151E-02 -.761E-03 0.766E-02
   0.140E+02 -.128E+03 0.660E+02   -.139E+02 0.128E+03 -.666E+02   -.365E+00 -.588E+00 0.135E+01   -.821E-03 -.344E-02 0.115E-02
   0.172E+03 -.143E+03 0.205E+03   -.172E+03 0.144E+03 -.206E+03   -.567E+00 -.106E+01 0.780E+00   -.100E-02 -.259E-02 -.532E-02
   0.201E+03 0.165E+03 0.101E+03   -.201E+03 -.166E+03 -.101E+03   0.101E+00 0.919E+00 0.738E+00   0.680E-02 0.671E-02 0.240E-02
   0.104E+03 -.770E+02 0.237E+03   -.109E+03 0.812E+02 -.250E+03   0.296E+01 -.214E+01 0.883E+01   0.339E-02 -.243E-02 -.198E-02
   -.315E+03 -.373E+02 0.178E+03   0.316E+03 0.373E+02 -.178E+03   0.896E+00 -.133E+00 -.222E+00   -.442E-02 -.786E-02 -.405E-04
   -.783E+02 0.966E+02 0.888E+02   0.782E+02 -.956E+02 -.879E+02   0.134E+00 -.461E+00 -.126E+01   -.296E-02 0.121E-01 -.800E-02
   -.232E+02 -.218E+02 0.133E+02   0.235E+02 0.214E+02 -.135E+02   -.724E-01 0.782E+00 -.272E+00   0.510E-02 -.136E-02 -.813E-02
   0.584E+02 -.265E+02 -.322E+03   -.575E+02 0.272E+02 0.325E+03   -.115E+01 -.446E+00 -.284E+01   -.675E-02 0.549E-02 0.804E-02
   0.260E+03 0.355E+03 -.159E+03   -.262E+03 -.358E+03 0.158E+03   0.226E+01 0.274E+01 0.582E+00   0.632E-02 0.190E-01 -.178E-01
   -.171E+03 -.456E+01 -.396E+02   0.172E+03 0.104E+01 0.389E+02   -.850E+00 0.344E+01 0.279E+00   -.749E-02 -.101E-01 -.193E-02
   -.840E+02 0.448E+02 -.276E+03   0.815E+02 -.431E+02 0.276E+03   0.194E+01 -.143E+01 -.656E+00   -.310E-02 -.661E-02 0.146E-01
   0.255E+03 -.323E+03 0.255E+03   -.265E+03 0.326E+03 -.259E+03   0.854E+01 -.297E+01 0.335E+01   -.113E-01 -.207E-02 -.105E-01
   -.181E+03 0.130E+03 0.551E+03   0.189E+03 -.128E+03 -.557E+03   -.632E+01 -.154E+01 0.452E+01   0.101E-01 -.726E-02 -.114E-01
   -.363E+03 0.165E+03 0.126E+03   0.364E+03 -.167E+03 -.122E+03   -.594E+00 0.809E+00 -.295E+01   0.118E-02 0.793E-02 0.660E-02
   -.312E+03 0.138E+03 0.260E+03   0.318E+03 -.151E+03 -.263E+03   -.383E+01 0.105E+02 0.349E+01   0.389E-02 -.482E-02 -.101E-01
   -.304E+03 0.141E+03 -.484E+03   0.304E+03 -.141E+03 0.484E+03   0.339E+00 0.130E+00 -.182E+00   -.199E-02 0.103E-01 -.893E-02
   0.125E+03 -.126E+03 -.236E+03   -.126E+03 0.127E+03 0.237E+03   0.292E+00 -.153E+01 -.911E+00   0.359E-02 -.136E-01 0.120E-01
   -.289E+03 -.546E+02 -.203E+03   0.289E+03 0.544E+02 0.203E+03   -.808E-01 0.205E+00 -.638E+00   0.277E-02 0.135E-01 -.114E-01
   -.164E+03 0.139E+03 0.313E+03   0.162E+03 -.139E+03 -.316E+03   0.208E+01 0.117E+00 0.237E+01   -.407E-03 -.148E-02 0.584E-02
   0.115E+03 -.345E+02 0.170E+03   -.119E+03 0.347E+02 -.171E+03   0.318E+01 0.336E+00 0.732E+00   0.366E-02 -.531E-02 -.114E-01
   0.682E+02 -.195E+03 0.746E+01   -.680E+02 0.194E+03 -.700E+01   -.144E+00 0.358E+00 0.368E-02   0.495E-02 -.726E-02 0.291E-02
   -.366E+02 -.938E+02 -.805E+02   0.357E+02 0.949E+02 0.795E+02   0.887E+00 -.873E+00 0.548E+00   0.483E-02 -.111E-02 0.426E-02
   0.148E+02 0.151E+03 -.105E+03   -.119E+02 -.156E+03 0.109E+03   -.142E+01 0.239E+01 -.296E+01   -.414E-02 0.344E-02 -.120E-02
   0.233E+03 -.146E+03 -.275E+02   -.232E+03 0.146E+03 0.269E+02   -.524E+00 -.138E+00 0.697E+00   0.120E-01 -.127E-01 0.932E-03
   0.127E+03 -.230E+02 -.165E+03   -.127E+03 0.234E+02 0.165E+03   0.118E+00 -.841E+00 0.455E+00   0.688E-02 -.931E-02 0.859E-02
   0.450E+01 -.195E+03 -.238E+03   -.906E+01 0.200E+03 0.239E+03   0.240E+01 -.350E+01 -.146E+01   -.138E-02 0.394E-02 0.252E-02
   -.125E+03 0.657E+02 -.106E+03   0.125E+03 -.653E+02 0.105E+03   0.909E+00 -.168E+00 0.441E-02   -.505E-03 0.779E-02 0.975E-02
   -.500E+02 -.119E+03 -.268E+03   0.543E+02 0.122E+03 0.269E+03   -.305E+01 -.235E+01 -.145E+01   -.806E-02 0.112E-03 -.390E-02
   0.240E+02 0.302E+03 -.257E+03   -.254E+02 -.311E+03 0.257E+03   0.564E+00 0.600E+01 -.732E+00   -.204E-02 0.223E-02 -.350E-02
   0.466E+02 -.504E+02 0.225E+03   -.459E+02 0.496E+02 -.226E+03   -.917E+00 0.293E+00 0.939E+00   -.446E-02 0.794E-02 0.336E-02
   0.283E+03 -.119E+03 0.208E+03   -.283E+03 0.119E+03 -.208E+03   0.305E+00 0.354E+00 0.887E+00   0.103E-01 0.104E-01 -.279E-02
   0.259E+03 -.113E+02 0.322E+03   -.258E+03 0.107E+02 -.321E+03   -.119E+01 -.272E+00 -.149E+01   0.152E-02 -.103E-01 -.128E-02
   -.105E+03 0.133E+03 0.394E+03   0.106E+03 -.132E+03 -.394E+03   0.368E+00 -.717E+00 -.736E+00   0.272E-03 0.782E-03 0.494E-02
   -.169E+02 -.420E+02 -.171E+03   0.162E+02 0.421E+02 0.171E+03   0.566E+00 -.521E+00 -.454E-01   0.702E-02 -.116E-02 0.483E-02
   0.905E+02 -.184E+03 -.149E+03   -.931E+02 0.185E+03 0.146E+03   0.244E+01 -.133E+01 0.212E+01   0.264E-02 -.913E-03 0.229E-02
   0.138E+03 0.161E+03 -.188E+03   -.136E+03 -.163E+03 0.187E+03   -.184E+01 0.511E+00 0.211E+01   -.358E-02 -.837E-03 -.155E-02
   -.625E+02 -.133E+03 -.241E+03   0.625E+02 0.133E+03 0.242E+03   -.327E+00 0.629E+00 -.149E+00   0.163E-02 -.106E-01 0.978E-02
   0.117E+03 0.838E+02 0.237E+03   -.116E+03 -.828E+02 -.238E+03   -.485E+00 -.131E+01 0.126E+01   0.170E-02 0.444E-02 0.109E-01
   -.217E+03 -.659E+01 0.301E+03   0.216E+03 0.567E+01 -.302E+03   0.221E+00 0.768E+00 0.576E+00   -.904E-02 -.177E-02 0.745E-02
   -.195E+02 -.328E+03 0.253E+03   0.183E+02 0.328E+03 -.253E+03   -.182E+00 0.928E+00 -.766E-01   -.301E-02 0.457E-02 0.101E-01
   0.107E+03 0.355E+02 0.468E+02   -.105E+03 -.337E+02 -.461E+02   -.195E+00 -.189E+01 -.747E+00   0.106E-03 0.107E-02 -.779E-02
   0.129E+03 -.652E+02 -.139E+03   -.128E+03 0.675E+02 0.142E+03   -.446E+00 -.907E+00 -.103E+01   0.430E-02 -.617E-04 -.182E-03
   0.308E+03 0.187E+03 0.302E+02   -.312E+03 -.192E+03 -.280E+02   0.308E+01 0.395E+01 -.175E+01   -.180E-02 0.610E-03 -.200E-02
   0.188E+03 -.239E+03 -.729E+02   -.182E+03 0.245E+03 0.917E+02   -.533E+01 -.317E+01 -.108E+02   0.445E-02 -.135E-01 -.826E-02
   -.515E+02 0.944E+02 0.747E+02   0.515E+02 -.949E+02 -.758E+02   -.155E+01 0.428E+00 0.131E-01   -.303E-02 -.363E-02 -.881E-02
 -----------------------------------------------------------------------------------------------
   -.346E+01 -.839E+01 0.180E+01   0.689E-12 0.256E-12 0.355E-12   0.349E+01 0.840E+01 -.170E+01   0.117E-01 -.519E-02 -.110E-01
 
 
 POSITION                                       TOTAL-FORCE (eV/Angst)
 -----------------------------------------------------------------------------------
      3.57265      3.44299      0.25013        -0.180886      0.132892     -0.696445
      3.27488      6.91757      9.48133        -0.371734      0.155897     -0.984272
      6.91865      0.42597      2.85930         0.569126     -0.344358      0.041163
      3.34222      3.84554      3.52534        -0.465812      0.465395      0.337913
      0.61491      5.88733      3.44185        -0.032202      0.332774      0.140072
     10.05856      0.62890      6.16300        -0.247272      0.764957      0.016671
      9.02620      2.16516      1.02440        -0.067155     -0.369747     -0.553539
      8.44719      5.01106      1.93888        -0.072320      0.441543     -0.292383
      6.04509      8.32407      0.96300         0.600771     -0.597224     -1.425300
      2.31968      1.27419      4.74973        -0.191388      0.086645      0.715947
      5.37056      1.88985      4.79340        -0.802943      0.447351     -0.230205
      5.91673      5.01449      4.53114         0.379020      0.270093      0.629293
      5.28011      8.10642      5.20753        -1.252393      2.057819     -3.906376
      8.51840      7.91826      5.08317         1.953536     -0.115447     -0.392081
      1.20745      2.09678      8.12688         0.077645      0.487085     -0.383003
      9.14095      4.93323      8.07721         0.147007      0.330704     -0.412559
      6.70472      1.26390      0.28178        -0.253571      0.255123      0.218543
      0.56969      3.58682      0.81782         0.031904      0.078461      0.152230
      7.46283      6.60554      9.36987         0.756600     -0.095733     -0.475856
      7.17360      6.97532      2.95927        -0.543770      0.255229      0.150421
      3.71496      0.90193      7.06456        -1.486889      0.174041     -0.810306
      7.24187      0.57843      6.00216         1.660322      0.262093     -1.440812
      9.71347      3.18989      5.98024         0.776264     -1.476672      0.555896
      7.33316      6.29236      6.31985         2.487839     -3.046870      0.095212
      2.26817      5.15182      1.68534         0.486056      0.192447     -0.228771
      2.03822      7.84808      2.19716        -0.485076      0.022751     -0.337612
      8.57226      1.91625      7.92453        -0.018509      0.086899     -0.195349
      1.77847      4.77403      8.25939         0.218801      0.067096     -0.342376
      2.85000      8.30556      7.28483        -0.426819      0.570461     -0.353710
      1.02726      8.82654      9.37285         0.067828     -0.097071      0.458910
      3.18023      0.23914      0.02550        -0.010391      0.223840     -0.394567
      6.42176      3.99377      8.96235         1.450391     -2.518326      0.620046
     10.59512      6.60195      0.37694         0.330313     -0.144179      0.094721
     10.08674      0.61120      3.19166        -0.085695     -0.465133      0.436376
      4.33909      9.01229      3.07882        -2.161168      1.289906     -0.150815
      0.32732      2.97181      3.32443         0.498383      0.249846     -0.307931
      6.02703      3.18560      2.16169         1.274286      0.782578      0.189153
      4.36651      6.90756      2.99562        -0.890522     -2.804945     -0.491190
      4.10245      3.40322      6.73949        -0.277849     -0.420263     -0.221557
      7.14598      3.43514      6.53662        -0.230276     -0.267698      0.158438
      0.72475      6.81361      7.08073        -0.784527     -0.859903      0.042631
      3.24324      5.88367      6.37494         0.924163      0.779791     -0.341498
      1.70621      1.39993      1.72492        -0.156112     -0.421177     -0.006316
      4.48751      1.56397      2.00588        -0.150627      0.483958     -0.632185
      5.45092      5.55285      1.28694         0.011765     -0.885303      0.775373
      9.17488      8.16538      1.79059        -0.288711      0.381330      0.428257
      8.13713      2.63667      3.95326        -0.045893     -0.238066      0.306185
      1.35184      4.16199      5.80991        -0.201027     -0.160778      0.000525
      9.04250      4.96752      4.85242        -1.402120      1.424309      0.027630
      2.09951      7.80815      4.83981         0.960222     -0.083967     -0.055687
      5.79072      0.87822      7.48094         0.513791      1.383475      2.301766
      5.40175      5.69186      7.90567        -0.781686     -1.918484      0.455482
      5.86391      7.56686      7.04898        -0.213777      2.439511      7.905863
      8.95456      8.61816      8.52641        -1.596914     -0.044958     -1.192016
 -----------------------------------------------------------------------------------
    total drift:                                0.044973      0.006891      0.089742


--------------------------------------------------------------------------------------------------------



  FREE ENERGIE OF THE ION-ELECTRON SYSTEM (eV)
  ---------------------------------------------------
  free  energy   TOTEN  =      -420.39380759 eV

  energy  without entropy=     -420.30268148  energy(sigma->0) =     -420.34824453
 


--------------------------------------------------------------------------------------------------------


    POTLOK:  cpu time    0.0661: real time    0.0663


--------------------------------------------------------------------------------------------------------


     LOOP+:  cpu time 1125.0747: real time 1129.2094
    4ORBIT:  cpu time    0.0000: real time    0.0000

 total amount of memory used by VASP MPI-rank0    97335. kBytes
=======================================================================

   base      :      30000. kBytes
   nonlr-proj:       7314. kBytes
   fftplans  :       3228. kBytes
   grid      :       5429. kBytes
   one-center:        217. kBytes
   wavefun   :      51147. kBytes
 
  
  
 General timing and accounting informations for this job:
 ========================================================
  
                  Total CPU time used (sec):     1148.899
                            User time (sec):      840.683
                          System time (sec):      308.216
                         Elapsed time (sec):     1154.056
  
                   Maximum memory used (kb):      135992.
                   Average memory used (kb):           0.
  
                          Minor page faults:       308164
                          Major page faults:           73
                 Voluntary context switches:         1434
