 vasp.5.4.4 18Apr17 (build Dec 13 2019 08:37:50) complex                        
  
 executed on             LinuxIFC date 2022.02.14  12:11:26
 running on   24 total cores
 distrk:  each k-point on   24 cores,    1 groups
 distr:  one band on NCORES_PER_BAND=   4 cores,    6 groups


--------------------------------------------------------------------------------------------------------


 INCAR:
 POTCAR:    PAW_PBE Hf_pv 06Sep2000               
 POTCAR:    PAW_PBE Ni_pv 06Sep2000               
 POTCAR:    PAW_PBE Ti_sv 26Sep2005               
 POTCAR:    PAW_PBE Hf_pv 06Sep2000               
  local pseudopotential read in
  partial core-charges read in
  partial kinetic energy density read in
  atomic valenz-charges read in
  non local Contribution for L=           1  read in
    real space projection operators read in
  non local Contribution for L=           1  read in
    real space projection operators read in
  non local Contribution for L=           2  read in
    real space projection operators read in
  non local Contribution for L=           2  read in
    real space projection operators read in
  non local Contribution for L=           0  read in
    real space projection operators read in
  non local Contribution for L=           0  read in
    real space projection operators read in
    PAW grid and wavefunctions read in
 
   number of l-projection  operators is LMAX  =           6
   number of lm-projection operators is LMMAX =          18
 
 POTCAR:    PAW_PBE Ni_pv 06Sep2000               
  local pseudopotential read in
  partial core-charges read in
  partial kinetic energy density read in
  atomic valenz-charges read in
  non local Contribution for L=           1  read in
    real space projection operators read in
  non local Contribution for L=           1  read in
    real space projection operators read in
  non local Contribution for L=           2  read in
    real space projection operators read in
  non local Contribution for L=           2  read in
    real space projection operators read in
  non local Contribution for L=           0  read in
    real space projection operators read in
  non local Contribution for L=           0  read in
    real space projection operators read in
    PAW grid and wavefunctions read in
 
   number of l-projection  operators is LMAX  =           6
   number of lm-projection operators is LMMAX =          18
 
 POTCAR:    PAW_PBE Ti_sv 26Sep2005               
  local pseudopotential read in
  partial core-charges read in
  partial kinetic energy density read in
  atomic valenz-charges read in
  non local Contribution for L=           0  read in
    real space projection operators read in
  non local Contribution for L=           0  read in
    real space projection operators read in
  non local Contribution for L=           1  read in
    real space projection operators read in
  non local Contribution for L=           1  read in
    real space projection operators read in
  non local Contribution for L=           2  read in
    real space projection operators read in
  non local Contribution for L=           2  read in
    real space projection operators read in
    PAW grid and wavefunctions read in
 
   number of l-projection  operators is LMAX  =           6
   number of lm-projection operators is LMMAX =          18
 
 Optimization of the real space projectors (new method)

 maximal supplied QI-value         = 14.36
 optimisation between [QCUT,QGAM] = [  7.18, 14.36] = [ 14.44, 57.76] Ry 
 Optimized for a Real-space Cutoff    2.13 Angstroem

   l    n(q)    QCUT    max X(q) W(low)/X(q) W(high)/X(q)  e(spline) 
   1      9     7.181    53.935    0.31E-04    0.13E-03    0.36E-06
   1      9     7.181    55.378    0.32E-04    0.13E-03    0.37E-06
   2      8     7.181    48.043    0.31E-03    0.25E-04    0.96E-06
   2      8     7.181    39.488    0.29E-03    0.24E-04    0.92E-06
   0      9     7.181   121.653    0.21E-04    0.44E-04    0.12E-06
   0      9     7.181    66.520    0.17E-04    0.39E-04    0.11E-06
 Optimization of the real space projectors (new method)

 maximal supplied QI-value         = 18.90
 optimisation between [QCUT,QGAM] = [  7.18, 14.36] = [ 14.44, 57.76] Ry 
 Optimized for a Real-space Cutoff    2.20 Angstroem

   l    n(q)    QCUT    max X(q) W(low)/X(q) W(high)/X(q)  e(spline) 
   1      9     7.181     2.836    0.59E-05    0.48E-04    0.52E-06
   1      9     7.181     4.023    0.86E-04    0.22E-03    0.98E-06
   2      8     7.181    43.750    0.26E-03    0.56E-03    0.14E-05
   2      8     7.181    39.270    0.28E-03    0.60E-03    0.14E-05
   0      9     7.181    54.797    0.52E-04    0.91E-04    0.33E-06
   0      9     7.181    24.266    0.38E-04    0.81E-04    0.31E-06
 Optimization of the real space projectors (new method)

 maximal supplied QI-value         = 16.25
 optimisation between [QCUT,QGAM] = [  7.15, 14.46] = [ 14.32, 58.58] Ry 
 Optimized for a Real-space Cutoff    1.90 Angstroem

   l    n(q)    QCUT    max X(q) W(low)/X(q) W(high)/X(q)  e(spline) 
   0      8     7.151    12.277    0.20E-04    0.42E-04    0.73E-07
   0      8     7.151    11.419    0.26E-04    0.89E-04    0.14E-06
   1      8     7.151     4.010    0.12E-03    0.71E-04    0.98E-07
   1      8     7.151     6.182    0.37E-03    0.25E-03    0.21E-06
   2      7     7.151    46.638    0.39E-03    0.43E-03    0.16E-06
   2      7     7.151    42.148    0.38E-03    0.43E-03    0.15E-06
  PAW_PBE Hf_pv 06Sep2000               :
 energy of atom  1       EATOM= -860.9206
 kinetic energy error for atom=    0.0752 (will be added to EATOM!!)
  PAW_PBE Ni_pv 06Sep2000               :
 energy of atom  2       EATOM=-3501.1230
 kinetic energy error for atom=   18.8503 (will be added to EATOM!!)
  PAW_PBE Ti_sv 26Sep2005               :
 energy of atom  3       EATOM=-1588.0892
 kinetic energy error for atom=    0.6825 (will be added to EATOM!!)
 
 
 POSCAR: MLIP output to VASP                     
  positions in cartesian coordinates
  No initial velocities read in
 exchange correlation table for  LEXCH =        8
   RHO(1)=    0.500       N(1)  =     2000
   RHO(2)=  100.500       N(2)  =     4000
 


--------------------------------------------------------------------------------------------------------


 ion  position               nearest neighbor table
   1  0.330  0.350  0.019-  28 2.57  25 2.58  44 2.73  32 2.94  39 2.95  45 3.01  18 3.06  37 3.12
                            43 3.14  15 3.18  31 3.24  52 3.28   4 3.31   2 3.36
   2  0.282  0.712  0.993-  25 2.49  29 2.63  26 2.66  45 2.78  31 2.82  28 2.89  52 2.92  30 2.95
                            33 3.06  38 3.11  42 3.27   9 3.30   1 3.36
   3  0.671  0.003  0.307-  46 2.70  17 2.72  47 2.75  20 2.79  44 2.82  11 2.88   9 2.91  14 2.92
                            37 2.98  22 3.16  35 3.17  34 3.19   7 3.29  13 3.43
   4  0.305  0.390  0.367-  25 2.50  44 2.97  12 3.00  10 3.03  48 3.05  37 3.08  11 3.09  36 3.15
                            38 3.27   1 3.31  39 3.33   5 3.41
   5  0.029  0.625  0.351-  25 2.52  26 2.72  49 2.77  50 2.80  36 2.93  46 2.94  48 3.02  33 3.06
                             8 3.20  14 3.28   4 3.41
   6  0.976  0.002  0.660-  23 2.59  27 2.64  41 2.72  22 2.82  50 2.91  29 2.94  34 2.97  54 2.98
                            30 3.10  15 3.14  10 3.16  14 3.17
   7  0.868  0.181  0.107-  27 2.56  17 2.60  18 2.70  34 2.87   8 3.04  43 3.06  36 3.08  47 3.10
                            30 3.16   3 3.29  37 3.37  46 3.39  15 3.40  16 3.53
   8  0.796  0.489  0.197-  20 2.55  19 2.64  18 2.82  36 2.97  49 2.97  37 3.04   7 3.04  33 3.10
                            45 3.11  47 3.13   5 3.20  46 3.24  16 3.33  32 3.33  12 3.62
   9  0.545  0.860  0.083-  19 2.52  17 2.59  20 2.66  31 2.76  35 2.80  45 2.85   3 2.91  38 2.99
                            44 3.06  51 3.17  46 3.24   2 3.30
  10  0.219  0.117  0.504-  21 2.73  50 2.89  35 2.91  36 2.98   4 3.03  43 3.09  11 3.11   6 3.16
                            34 3.19  48 3.22  13 3.51  15 3.65
  11  0.513  0.166  0.508-  22 2.59  39 2.77   3 2.88  51 2.90  40 2.93  44 2.94  21 2.98  47 2.99
                            37 3.01   4 3.09  10 3.11  13 3.17  12 3.18  35 3.32
  12  0.550  0.499  0.472-  24 2.62  20 2.81  40 2.83  38 2.89  37 3.00   4 3.00  49 3.14  11 3.18
                            13 3.23  39 3.28  47 3.30  45 3.32  42 3.36   8 3.62
  13  0.471  0.835  0.535-  53 2.01  35 2.50  38 2.68  24 2.96  20 3.15  21 3.16  11 3.17  29 3.20
                            50 3.22  12 3.23  42 3.23  14 3.25   3 3.43  10 3.51
  14  0.788  0.796  0.524-  24 2.36  22 2.43  20 2.68   3 2.92  49 3.01   6 3.17  41 3.23  13 3.25
                             5 3.28  53 3.32  34 3.33  46 3.37
  15  0.106  0.207  0.861-  18 2.71  28 2.74  23 2.83  30 2.87  31 2.93  21 2.97  27 3.02  43 3.08
                            48 3.11   6 3.14   1 3.18  16 3.30   7 3.40  10 3.65
  16  0.864  0.467  0.851-  19 2.70  23 2.79  18 2.81  24 2.86  33 2.87  40 2.93  28 2.96  32 3.01
                            27 3.07  49 3.23  41 3.23  15 3.30   8 3.33   7 3.53
  17  0.646  0.098  0.030-  51 2.43   9 2.59   7 2.60  32 2.71   3 2.72
  18  0.037  0.381  0.078-  25 2.47  28 2.52  33 2.53  36 2.59  43 2.63   7 2.70  15 2.71  16 2.81
                             8 2.82   1 3.06
  19  0.692  0.655  0.984-   9 2.52  45 2.56   8 2.64  54 2.64  52 2.69  16 2.70
  20  0.662  0.706  0.300-   8 2.55  46 2.61   9 2.66  14 2.68   3 2.79  12 2.81  13 3.15
  21  0.357  0.066  0.752-  51 2.12  29 2.36  31 2.47  39 2.55  10 2.73  15 2.97  11 2.98  13 3.16

  22  0.702  0.013  0.641-  51 2.09  14 2.43  11 2.59   6 2.82   3 3.16
  23  0.929  0.280  0.633-  49 2.21  48 2.46   6 2.59  47 2.63  40 2.64  16 2.79  15 2.83
  24  0.681  0.626  0.660-  53 2.08  14 2.36  52 2.57  49 2.61  12 2.62  16 2.86  13 2.96
  25  0.194  0.539  0.167-  18 2.47   2 2.49   4 2.50  33 2.52   5 2.52   1 2.58
  26  0.157  0.829  0.214-  30 2.58  38 2.63  50 2.64  34 2.65   2 2.66   5 2.72  35 2.73
  27  0.824  0.146  0.843-  40 2.50   7 2.56   6 2.64  54 2.65  15 3.02  16 3.07
  28  0.148  0.491  0.868-  18 2.52  33 2.56  48 2.56   1 2.57  41 2.58  42 2.63  15 2.74   2 2.89
                            16 2.96
  29  0.233  0.867  0.755-  21 2.36  41 2.60  50 2.61  42 2.62   2 2.63   6 2.94  13 3.20
  30  0.053  0.930  0.975-  26 2.58  54 2.61  33 2.76  31 2.82  15 2.87   2 2.95   6 3.10   7 3.16

  31  0.309  0.008  0.004-  21 2.47  43 2.53  44 2.72   9 2.76   2 2.82  30 2.82  15 2.93   1 3.24

  32  0.604  0.380  0.947-  52 2.25  45 2.59  40 2.59  37 2.70  17 2.71   1 2.94  16 3.01   8 3.33

  33  0.997  0.650  0.027-  25 2.52  18 2.53  46 2.54  28 2.56  30 2.76  54 2.80  41 2.82  16 2.87
                             5 3.06   2 3.06   8 3.10
  34  0.979  0.004  0.343-  26 2.65  43 2.77  50 2.78  46 2.80   7 2.87  47 2.91   6 2.97  10 3.19
                             3 3.19  14 3.33
  35  0.375  0.940  0.305-  38 2.11  44 2.16  13 2.50  26 2.73   9 2.80  10 2.91   3 3.17  11 3.32

  36  0.016  0.313  0.346-  18 2.59  43 2.63  49 2.66  47 2.71   5 2.93   8 2.97  10 2.98   7 3.08
                             4 3.15
  37  0.570  0.306  0.224-  44 2.24  45 2.59  32 2.70  47 2.82   3 2.98  12 3.00  11 3.01   8 3.04
                             4 3.08   1 3.12   7 3.37
  38  0.389  0.714  0.302-  35 2.11  45 2.44  26 2.63  13 2.68  12 2.89   9 2.99   2 3.11   4 3.27

  39  0.381  0.333  0.711-  21 2.55  42 2.65  11 2.77  52 2.88   1 2.95  12 3.28   4 3.33
  40  0.678  0.320  0.690-  27 2.50  32 2.59  23 2.64  12 2.83  47 2.88  11 2.93  16 2.93
  41  0.034  0.718  0.736-  28 2.58  29 2.60   6 2.72  42 2.78  50 2.81  33 2.82  54 2.84  16 3.23
                            14 3.23
  42  0.285  0.605  0.665-  29 2.62  48 2.62  28 2.63  39 2.65  52 2.65  50 2.71  41 2.78  13 3.23
                             2 3.27  12 3.36
  43  0.159  0.138  0.181-  31 2.53  18 2.63  36 2.63  34 2.77  44 2.80   7 3.06  15 3.08  10 3.09
                             1 3.14
  44  0.429  0.140  0.212-  35 2.16  37 2.24  31 2.72   1 2.73  43 2.80   3 2.82  11 2.94   4 2.97
                             9 3.06
  45  0.502  0.565  0.124-  38 2.44  19 2.56  37 2.59  32 2.59  52 2.77   2 2.78   9 2.85   1 3.01
                             8 3.11  12 3.32
  46  0.851  0.824  0.173-  33 2.54  20 2.61  54 2.68   3 2.70  34 2.80   5 2.94   8 3.24   9 3.24
                            14 3.37   7 3.39
  47  0.778  0.232  0.418-  23 2.63  49 2.66  36 2.71   3 2.75  37 2.82  40 2.88  34 2.91  11 2.99
                             7 3.10   8 3.13  12 3.30
  48  0.109  0.431  0.608-  23 2.46  28 2.56  42 2.62  49 2.78   5 3.02   4 3.05  15 3.11  10 3.22

  49  0.854  0.476  0.508-  23 2.21  24 2.61  36 2.66  47 2.66   5 2.77  48 2.78   8 2.97  14 3.01
                            12 3.14  16 3.23
  50  0.163  0.821  0.495-  29 2.61  26 2.64  42 2.71  34 2.78   5 2.80  41 2.81  10 2.89   6 2.91
                            13 3.22
  51  0.559  0.051  0.797-  22 2.09  21 2.12  17 2.43  53 2.76  11 2.90   9 3.17
  52  0.496  0.570  0.829-  53 2.11  32 2.25  24 2.57  42 2.65  19 2.69  45 2.77  39 2.88   2 2.92
                             1 3.28
  53  0.531  0.771  0.733-  13 2.01  24 2.08  52 2.11  51 2.76  14 3.32
  54  0.826  0.864  0.889-  30 2.61  19 2.64  27 2.65  46 2.68  33 2.80  41 2.84   6 2.98
 
  LATTYP: Found a triclinic cell.
 ALAT       =    29.8773866884
 B/A-ratio  =     0.3450371813
 C/A-ratio  =     0.3143215162
 COS(alpha) =     0.0007309725
 COS(beta)  =     0.6168880492
 COS(gamma) =     0.7235602306
  
  Lattice vectors:
  
 A1 = (  21.0630120000,  10.1400410000, -18.6061100000)
 A2 = (  10.2948030000,   0.5362940000,  -0.0311270000)
 A3 = (  -0.0147530000,  -0.1298600000,  -9.3901960000)


Analysis of symmetry for initial positions (statically):
=====================================================================
 Subroutine PRICEL returns:
 Original cell was already a primitive cell.
 

 Routine SETGRP: Setting up the symmetry group for a 
 triclinic supercell.


 Subroutine GETGRP returns: Found  1 space group operations
 (whereof  1 operations were pure point group operations)
 out of a pool of  2 trial point group operations.


The static configuration has the point symmetry C_1 .


Analysis of symmetry for dynamics (positions and initial velocities):
=====================================================================
 Subroutine PRICEL returns:
 Original cell was already a primitive cell.
 

 Routine SETGRP: Setting up the symmetry group for a 
 triclinic supercell.


 Subroutine GETGRP returns: Found  1 space group operations
 (whereof  1 operations were pure point group operations)
 out of a pool of  2 trial point group operations.


The dynamic configuration has the point symmetry C_1 .


 Subroutine INISYM returns: Found  1 space group operations
 (whereof  1 operations are pure point group operations),
 and found     1 'primitive' translations

 
 

Automatic generation of k-mesh.
 generate k-points for:    2    2    2
Space group operators:
 irot       det(A)        alpha          n_x          n_y          n_z        tau_x        tau_y        tau_z
    1     1.000000     0.000001     1.000000     0.000000     0.000000     0.000000     0.000000     0.000000
 
 Subroutine IBZKPT returns following result:
 ===========================================
 
 Found      8 irreducible k-points:
 
 Following reciprocal coordinates:
            Coordinates               Weight
  0.000000  0.000000  0.000000      1.000000
  0.500000 -0.000000  0.000000      1.000000
  0.000000  0.500000 -0.000000      1.000000
  0.500000  0.500000 -0.000000      1.000000
 -0.000000  0.000000  0.500000      1.000000
  0.500000  0.000000  0.500000      1.000000
 -0.000000  0.500000  0.500000      1.000000
  0.500000  0.500000  0.500000      1.000000
 
 Following cartesian coordinates:
            Coordinates               Weight
  0.000000  0.000000  0.000000      1.000000
  0.048705 -0.002625 -0.000040      1.000000
 -0.002804  0.053777 -0.000739      1.000000
  0.045901  0.051152 -0.000780      1.000000
  0.000232 -0.001363  0.053266      1.000000
  0.048937 -0.003988  0.053225      1.000000
 -0.002572  0.052413  0.052526      1.000000
  0.046133  0.049788  0.052486      1.000000
 


--------------------------------------------------------------------------------------------------------




 Dimension of arrays:
   k-points           NKPTS =      8   k-points in BZ     NKDIM =      8   number of bands    NBANDS=    402
   number of dos      NEDOS =    301   number of ions     NIONS =     54
   non local maximal  LDIM  =      6   non local SUM 2l+1 LMDIM =     18
   total plane-waves  NPLWV =  36864
   max r-space proj   IRMAX =   1872   max aug-charges    IRDMAX=   2472
   dimension x,y,z NGX =    36 NGY =   32 NGZ =   32
   dimension x,y,z NGXF=    72 NGYF=   64 NGZF=   64
   support grid    NGXF=    72 NGYF=   64 NGZF=   64
   ions per type =              16  13  25
   NGX,Y,Z   is equivalent  to a cutoff of   5.81,  5.69,  5.66 a.u.
   NGXF,Y,Z  is equivalent  to a cutoff of  11.61, 11.39, 11.33 a.u.

 SYSTEM =  unknown system                          
 POSCAR =  MLIP output to VASP                     

 Startparameter for this run:
   NWRITE =      1    write-flag & timer
   PREC   = normal    normal or accurate (medium, high low for compatibility)
   ISTART =      0    job   : 0-new  1-cont  2-samecut
   ICHARG =      2    charge: 1-file 2-atom 10-const
   ISPIN  =      1    spin polarized calculation?
   LNONCOLLINEAR =      F non collinear calculations
   LSORBIT =      F    spin-orbit coupling
   INIWAV =      1    electr: 0-lowe 1-rand  2-diag
   LASPH  =      F    aspherical Exc in radial PAW
   METAGGA=      F    non-selfconsistent MetaGGA calc.

 Electronic Relaxation 1
   ENCUT  =  200.0 eV  14.70 Ry    3.83 a.u.  11.89 10.77 10.83*2*pi/ulx,y,z
   ENINI  =  200.0     initial cutoff
   ENAUG  =  703.4 eV  augmentation charge cutoff
   NELM   =     60;   NELMIN=  2; NELMDL= -5     # of ELM steps 
   EDIFF  = 0.1E-05   stopping-criterion for ELM
   LREAL  =      T    real-space projection
   NLSPLINE    = F    spline interpolate recip. space projectors
   LCOMPAT=      F    compatible to vasp.4.4
   GGA_COMPAT  = T    GGA compatible to vasp.4.4-vasp.4.6
   LMAXPAW     = -100 max onsite density
   LMAXMIX     =    2 max onsite mixed and CHGCAR
   VOSKOWN=      0    Vosko Wilk Nusair interpolation
   ROPT   =   -0.00050  -0.00050  -0.00050
 Ionic relaxation
   EDIFFG = -.1E-01   stopping-criterion for IOM
   NSW    =      0    number of steps for IOM
   NBLOCK =      1;   KBLOCK =      1    inner block; outer block 
   IBRION =     -1    ionic relax: 0-MD 1-quasi-New 2-CG
   NFREE  =      0    steps in history (QN), initial steepest desc. (CG)
   ISIF   =      3    stress and relaxation
   IWAVPR =     10    prediction:  0-non 1-charg 2-wave 3-comb
   ISYM   =      2    0-nonsym 1-usesym 2-fastsym
   LCORR  =      T    Harris-Foulkes like correction to forces

   POTIM  = 0.5000    time-step for ionic-motion
   TEIN   =    0.0    initial temperature
   TEBEG  =    0.0;   TEEND  =   0.0 temperature during run
   SMASS  =  -3.00    Nose mass-parameter (am)
   estimated Nose-frequenzy (Omega)   =  0.10E-29 period in steps =****** mass=  -0.243E-26a.u.
   SCALEE = 1.0000    scale energy and forces
   NPACO  =    256;   APACO  = 16.0  distance and # of slots for P.C.
   PSTRESS=    0.0 pullay stress

  Mass of Ions in am
   POMASS = 178.49 58.69 47.88
  Ionic Valenz
   ZVAL   =  10.00 16.00 12.00
  Atomic Wigner-Seitz radii
   RWIGS  =  -1.00 -1.00 -1.00
  virtual crystal weights 
   VCA    =   1.00  1.00  1.00
   NELECT =     668.0000    total number of electrons
   NUPDOWN=      -1.0000    fix difference up-down

 DOS related values:
   EMIN   =  10.00;   EMAX   =-10.00  energy-range for DOS
   EFERMI =   0.00
   ISMEAR =     0;   SIGMA  =   0.05  broadening in eV -4-tet -1-fermi 0-gaus

 Electronic relaxation 2 (details)
   IALGO  =     38    algorithm
   LDIAG  =      T    sub-space diagonalisation (order eigenvalues)
   LSUBROT=      F    optimize rotation matrix (better conditioning)
   TURBO    =      0    0=normal 1=particle mesh
   IRESTART =      0    0=no restart 2=restart with 2 vectors
   NREBOOT  =      0    no. of reboots
   NMIN     =      0    reboot dimension
   EREF     =   0.00    reference energy to select bands
   IMIX   =      4    mixing-type and parameters
     AMIX     =   0.40;   BMIX     =  1.00
     AMIX_MAG =   1.60;   BMIX_MAG =  1.00
     AMIN     =   0.10
     WC   =   100.;   INIMIX=   1;  MIXPRE=   1;  MAXMIX= -45

 Intra band minimization:
   WEIMIN = 0.0000     energy-eigenvalue tresh-hold
   EBREAK =  0.62E-09  absolut break condition
   DEPER  =   0.30     relativ break condition  

   TIME   =   0.40     timestep for ELM

  volume/ion in A,a.u.               =      16.64       112.32
  Fermi-wavevector in a.u.,A,eV,Ry     =   1.482894  2.802264 29.918878  2.198975
  Thomas-Fermi vector in A             =   2.596624
 
 Write flags
   LWAVE        =      F    write WAVECAR
   LDOWNSAMPLE  =      F    k-point downsampling of WAVECAR
   LCHARG       =      F    write CHGCAR
   LVTOT        =      F    write LOCPOT, total local potential
   LVHAR        =      F    write LOCPOT, Hartree potential only
   LELF         =      F    write electronic localiz. function (ELF)
   LORBIT       =      0    0 simple, 1 ext, 2 COOP (PROOUT), +10 PAW based schemes


 Dipole corrections
   LMONO  =      F    monopole corrections only (constant potential shift)
   LDIPOL =      F    correct potential (dipole corrections)
   IDIPOL =      0    1-x, 2-y, 3-z, 4-all directions 
   EPSILON=  1.0000000 bulk dielectric constant

 Exchange correlation treatment:
   GGA     =    --    GGA type
   LEXCH   =     8    internal setting for exchange type
   VOSKOWN=      0    Vosko Wilk Nusair interpolation
   LHFCALC =     F    Hartree Fock is set to
   LHFONE  =     F    Hartree Fock one center treatment
   AEXX    =    0.0000 exact exchange contribution

 Linear response parameters
   LEPSILON=     F    determine dielectric tensor
   LRPA    =     F    only Hartree local field effects (RPA)
   LNABLA  =     F    use nabla operator in PAW spheres
   LVEL    =     F    velocity operator in full k-point grid
   LINTERFAST=   F  fast interpolation
   KINTER  =     0    interpolate to denser k-point grid
   CSHIFT  =0.1000    complex shift for real part using Kramers Kronig
   OMEGAMAX=  -1.0    maximum frequency
   DEG_THRESHOLD= 0.2000000E-02 threshold for treating states as degnerate
   RTIME   =   -0.100 relaxation time in fs
  (WPLASMAI=    0.000 imaginary part of plasma frequency in eV, 0.658/RTIME)
   DFIELD  = 0.0000000 0.0000000 0.0000000 field for delta impulse in time
 
 Orbital magnetization related:
   ORBITALMAG=     F  switch on orbital magnetization
   LCHIMAG   =     F  perturbation theory with respect to B field
   DQ        =  0.001000  dq finite difference perturbation B field
   LLRAUG    =     F  two centre corrections for induced B field



--------------------------------------------------------------------------------------------------------


 Static calculation
 charge density and potential will be updated during run
 non-spin polarized calculation
 Variant of blocked Davidson
 Davidson routine will perform the subspace rotation
 perform sub-space diagonalisation
    after iterative eigenvector-optimisation
 modified Broyden-mixing scheme, WC =      100.0
 initial mixing is a Kerker type mixing with AMIX =  0.4000 and BMIX =      1.0000
 Hartree-type preconditioning will be used
 using additional bands           68
 real space projection scheme for non local part
 use partial core corrections
 calculate Harris-corrections to forces 
   (improved forces if not selfconsistent)
 use gradient corrections 
 use of overlap-Matrix (Vanderbilt PP)
 Gauss-broadening in eV      SIGMA  =   0.05


--------------------------------------------------------------------------------------------------------


  energy-cutoff  :      200.00
  volume of cell :      898.82
      direct lattice vectors                 reciprocal lattice vectors
    10.294803000  0.536294000 -0.031127000     0.097409649 -0.005250193 -0.000080434
     0.502912000  9.327173000  0.236536000    -0.005607324  0.107553460 -0.001478581
     0.014753000  0.129860000  9.390196000     0.000464144 -0.002726640  0.106531028

  length of vectors
    10.308809289  9.343715852  9.391105483     0.097551067  0.107709679  0.106566927


 
 k-points in units of 2pi/SCALE and weight: read from INCAR                         
   0.00000000  0.00000000  0.00000000       0.125
   0.04870482 -0.00262510 -0.00004022       0.125
  -0.00280366  0.05377673 -0.00073929       0.125
   0.04590116  0.05115163 -0.00077951       0.125
   0.00023207 -0.00136332  0.05326551       0.125
   0.04893690 -0.00398842  0.05322530       0.125
  -0.00257159  0.05241341  0.05252622       0.125
   0.04613323  0.04978831  0.05248601       0.125
 
 k-points in reciprocal lattice and weights: read from INCAR                         
   0.00000000  0.00000000  0.00000000       0.125
   0.50000000 -0.00000000  0.00000000       0.125
   0.00000000  0.50000000 -0.00000000       0.125
   0.50000000  0.50000000 -0.00000000       0.125
  -0.00000000  0.00000000  0.50000000       0.125
   0.50000000  0.00000000  0.50000000       0.125
  -0.00000000  0.50000000  0.50000000       0.125
   0.50000000  0.50000000  0.50000000       0.125
 
 position of ions in fractional coordinates (direct lattice) 
   0.32991380  0.34990288  0.01891671
   0.28192409  0.71162644  0.99271434
   0.67147708  0.00279117  0.30665418
   0.30509079  0.38964795  0.36662374
   0.02871190  0.62466575  0.35089659
   0.97600361  0.00212645  0.65950509
   0.86778867  0.18074309  0.10741601
   0.79637322  0.48872389  0.19680845
   0.54506998  0.85996143  0.08269833
   0.21888716  0.11701296  0.50359636
   0.51283653  0.16605823  0.50798560
   0.54965547  0.49944925  0.47178093
   0.47135445  0.83456615  0.53511140
   0.78779340  0.79635472  0.52387885
   0.10595530  0.20672901  0.86060794
   0.86386702  0.46738696  0.85126495
   0.64644643  0.09792462  0.02968396
   0.03659650  0.38137154  0.07760818
   0.69151772  0.65474816  0.98363478
   0.66191794  0.70561990  0.29956489
   0.35656899  0.06572974  0.75186018
   0.70190839  0.01272941  0.64120082
   0.92895726  0.27977443  0.63289136
   0.68077602  0.62630106  0.65950666
   0.19375822  0.53888611  0.16654627
   0.15716142  0.82941085  0.21361284
   0.82432286  0.14631449  0.84296218
   0.14751120  0.49127924  0.86768938
   0.23342594  0.86653983  0.75473685
   0.05297047  0.92970663  0.97490912
   0.30852739  0.00785038  0.00354068
   0.60385282  0.38028362  0.94685972
   0.99737481  0.65009476  0.02707233
   0.97908017  0.00445771  0.34302558
   0.37510495  0.94041981  0.30543055
   0.01601376  0.31287764  0.34620370
   0.57019170  0.30563046  0.22439891
   0.38883293  0.71401862  0.30231851
   0.38120885  0.33305952  0.71058978
   0.67752638  0.31972655  0.69030333
   0.03425542  0.71829441  0.73607545
   0.28452000  0.60519729  0.66459106
   0.15871256  0.13844993  0.18073274
   0.42875419  0.14008162  0.21150639
   0.50171556  0.56476007  0.12448854
   0.85070762  0.82412040  0.17274835
   0.77847426  0.23211034  0.41773197
   0.10936407  0.43146600  0.60821435
   0.85435570  0.47639538  0.50758566
   0.16312877  0.82086466  0.49527440
   0.55885937  0.05092366  0.79724538
   0.49566374  0.57020014  0.82918670
   0.53090723  0.77053906  0.73302446
   0.82632732  0.86409526  0.88898511
 
 position of ions in cartesian coordinates  (Angst):
   3.57264700  3.44299200  0.25012700
   3.27488400  6.91757100  9.48133200
   6.91865200  0.42596500  2.85930200
   3.34221700  3.84554200  3.52533800
   0.61491200  5.88733100  3.44185000
  10.05856400  0.62890200  6.16300500
   9.02619600  2.16516100  1.02439800
   8.44719400  5.01106000  1.93888200
   6.04509300  8.32406600  0.96299900
   2.31967700  1.27418500  4.74973300
   5.37055800  1.88985200  4.79340000
   5.91673400  5.01449200  4.53114400
   5.28010900  8.10641700  5.20753400
   8.51840300  7.91825800  5.08317000
   1.20745200  2.09677900  8.12687800
   9.14095400  4.93323100  8.07720900
   6.70472400  1.26390000  0.28177900
   0.56969500  3.58682300  0.81782500
   7.46283100  6.60554100  9.36987000
   7.17359900  6.97532300  2.95927400
   3.71495600  0.90193500  7.06456300
   7.24187000  0.57842500  6.00216400
   9.71347100  3.18988600  5.98023500
   7.33315900  6.29235800  6.31984900
   2.26817200  5.15182300  1.68533700
   2.03821800  7.84808300  2.19716000
   8.57226100  1.91624700  7.92453000
   1.77847000  4.77403400  8.25938700
   2.85000200  8.30556200  7.28482900
   1.02726400  8.82654400  9.37284800
   3.18022900  0.23914300  0.02550100
   6.42176400  3.99377300  8.96235300
  10.59511700  6.60194800  0.37694000
  10.08674000  0.61119800  3.19165600
   4.33908600  9.01228800  3.07882000
   0.32731600  2.97181000  3.32442900
   6.02702700  3.18559900  2.16169400
   4.36650700  6.90756300  2.99561800
   4.10245300  3.40322100  6.73949200
   7.14597900  3.43514100  6.53662100
   0.72475100  6.81361400  7.08072900
   3.24324300  5.88367000  6.37493500
   1.70620900  1.39993300  1.72492400
   4.48750900  1.56397000  2.00587500
   5.45092400  5.55284800  1.28694100
   9.17487600  8.16537600  1.79059500
   8.13713300  2.63667100  3.95325600
   1.35184400  4.16199200  5.80990500
   9.04249700  4.96752300  4.85242000
   2.09950800  7.80814800  4.83981000
   5.79071900  0.87821700  7.48094000
   5.40175400  5.69185500  7.90567000
   5.86391300  7.56686400  7.04897800
   8.95455600  8.61816400  8.52641300
 


--------------------------------------------------------------------------------------------------------


 k-point  1 :   0.0000 0.0000 0.0000  plane waves:    5759
 k-point  2 :   0.5000-0.0000 0.0000  plane waves:    5782
 k-point  3 :   0.0000 0.5000-0.0000  plane waves:    5774
 k-point  4 :   0.5000 0.5000-0.0000  plane waves:    5774
 k-point  5 :  -0.0000 0.0000 0.5000  plane waves:    5778
 k-point  6 :   0.5000 0.0000 0.5000  plane waves:    5790
 k-point  7 :  -0.0000 0.5000 0.5000  plane waves:    5776
 k-point  8 :   0.5000 0.5000 0.5000  plane waves:    5774

 maximum and minimum number of plane-waves per node :      1469     1419

 maximum number of plane-waves:      5790
 maximum index in each direction: 
   IXMAX=   11   IYMAX=   10   IZMAX=   10
   IXMIN=  -12   IYMIN=  -11   IZMIN=  -11


 real space projection operators:
  total allocation   :      10870.88 KBytes
  max/ min on nodes  :       2728.83       2707.03


 parallel 3D FFT for wavefunctions:
    minimum data exchange during FFTs selected (reduces bandwidth)
 parallel 3D FFT for charge:
    minimum data exchange during FFTs selected (reduces bandwidth)


 total amount of memory used by VASP MPI-rank0    51859. kBytes
=======================================================================

   base      :      30000. kBytes
   nonlr-proj:       5029. kBytes
   fftplans  :        719. kBytes
   grid      :       1178. kBytes
   one-center:        217. kBytes
   wavefun   :      14716. kBytes
 
     INWAV:  cpu time    0.0000: real time    0.0000
 Broyden mixing: mesh for mixing (old mesh)
   NGX = 23   NGY = 21   NGZ = 21
  (NGX  = 72   NGY  = 64   NGZ  = 64)
  gives a total of  10143 points

 initial charge density was supplied:
 charge density of overlapping atoms calculated
 number of electron     668.0000000 magnetization 
 keeping initial charge density in first step


--------------------------------------------------------------------------------------------------------


 Maximum index for non-local projection operator          459
 Maximum index for augmentation-charges          202 (set IRDMAX)


--------------------------------------------------------------------------------------------------------


 First call to EWALD:  gamma=   0.184
 Maximum number of real-space cells 3x 3x 3
 Maximum number of reciprocal cells 3x 3x 3

    FEWALD:  cpu time    0.0035: real time    0.0035


--------------------------------------- Iteration      1(   1)  ---------------------------------------


    POTLOK:  cpu time    0.0293: real time    0.0336
    SETDIJ:  cpu time    0.0082: real time    0.0082
     EDDAV:  cpu time   14.2134: real time   14.2255
       DOS:  cpu time    0.0069: real time    0.0069
    --------------------------------------------
      LOOP:  cpu time   14.2578: real time   14.2742

 eigenvalue-minimisations  :  7284
 total energy-change (2. order) : 0.5536830E+04  (-0.2259336E+05)
 number of electron     668.0000000 magnetization 
 augmentation part      668.0000000 magnetization 

 Free energy of the ion-electron system (eV)
  ---------------------------------------------------
  alpha Z        PSCENC =      4808.69657484
  Ewald energy   TEWEN  =    -65452.34749412
  -Hartree energ DENC   =    -30315.70294850
  -exchange      EXHF   =         0.00000000
  -V(xc)+E(xc)   XCENC  =      3051.64997037
  PAW double counting   =     80006.67163064   -81130.40725053
  entropy T*S    EENTRO =        -0.02357788
  eigenvalues    EBANDS =     -4159.94477925
  atomic energy  EATOM  =     98728.23761220
  Solvation  Ediel_sol  =         0.00000000
  ---------------------------------------------------
  free energy    TOTEN  =      5536.82973775 eV

  energy without entropy =     5536.85331564  energy(sigma->0) =     5536.84152669


--------------------------------------------------------------------------------------------------------




--------------------------------------- Iteration      1(   2)  ---------------------------------------


     EDDAV:  cpu time   13.3240: real time   13.3693
       DOS:  cpu time    0.0070: real time    0.0071
    --------------------------------------------
      LOOP:  cpu time   13.3311: real time   13.3763

 eigenvalue-minimisations  :  6432
 total energy-change (2. order) :-0.5141668E+04  (-0.4957589E+04)
 number of electron     668.0000000 magnetization 
 augmentation part      668.0000000 magnetization 

 Free energy of the ion-electron system (eV)
  ---------------------------------------------------
  alpha Z        PSCENC =      4808.69657484
  Ewald energy   TEWEN  =    -65452.34749412
  -Hartree energ DENC   =    -30315.70294850
  -exchange      EXHF   =         0.00000000
  -V(xc)+E(xc)   XCENC  =      3051.64997037
  PAW double counting   =     80006.67163064   -81130.40725053
  entropy T*S    EENTRO =        -0.05206721
  eigenvalues    EBANDS =     -9301.58456900
  atomic energy  EATOM  =     98728.23761220
  Solvation  Ediel_sol  =         0.00000000
  ---------------------------------------------------
  free energy    TOTEN  =       395.16145867 eV

  energy without entropy =      395.21352588  energy(sigma->0) =      395.18749228


--------------------------------------------------------------------------------------------------------




--------------------------------------- Iteration      1(   3)  ---------------------------------------


     EDDAV:  cpu time   17.7919: real time   18.2415
       DOS:  cpu time    0.0078: real time    0.0078
    --------------------------------------------
      LOOP:  cpu time   17.7997: real time   18.2493

 eigenvalue-minimisations  :  9828
 total energy-change (2. order) :-0.6489027E+03  (-0.6092673E+03)
 number of electron     668.0000000 magnetization 
 augmentation part      668.0000000 magnetization 

 Free energy of the ion-electron system (eV)
  ---------------------------------------------------
  alpha Z        PSCENC =      4808.69657484
  Ewald energy   TEWEN  =    -65452.34749412
  -Hartree energ DENC   =    -30315.70294850
  -exchange      EXHF   =         0.00000000
  -V(xc)+E(xc)   XCENC  =      3051.64997037
  PAW double counting   =     80006.67163064   -81130.40725053
  entropy T*S    EENTRO =        -0.07794835
  eigenvalues    EBANDS =     -9950.46142229
  atomic energy  EATOM  =     98728.23761220
  Solvation  Ediel_sol  =         0.00000000
  ---------------------------------------------------
  free energy    TOTEN  =      -253.74127576 eV

  energy without entropy =     -253.66332740  energy(sigma->0) =     -253.70230158


--------------------------------------------------------------------------------------------------------




--------------------------------------- Iteration      1(   4)  ---------------------------------------


     EDDAV:  cpu time   17.1846: real time   17.3675
       DOS:  cpu time    0.0072: real time    0.0072
    --------------------------------------------
      LOOP:  cpu time   17.1919: real time   17.3748

 eigenvalue-minimisations  :  9888
 total energy-change (2. order) :-0.7922482E+02  (-0.7653156E+02)
 number of electron     668.0000000 magnetization 
 augmentation part      668.0000000 magnetization 

 Free energy of the ion-electron system (eV)
  ---------------------------------------------------
  alpha Z        PSCENC =      4808.69657484
  Ewald energy   TEWEN  =    -65452.34749412
  -Hartree energ DENC   =    -30315.70294850
  -exchange      EXHF   =         0.00000000
  -V(xc)+E(xc)   XCENC  =      3051.64997037
  PAW double counting   =     80006.67163064   -81130.40725053
  entropy T*S    EENTRO =        -0.08677472
  eigenvalues    EBANDS =    -10029.67741635
  atomic energy  EATOM  =     98728.23761220
  Solvation  Ediel_sol  =         0.00000000
  ---------------------------------------------------
  free energy    TOTEN  =      -332.96609619 eV

  energy without entropy =     -332.87932146  energy(sigma->0) =     -332.92270883


--------------------------------------------------------------------------------------------------------




--------------------------------------- Iteration      1(   5)  ---------------------------------------


     EDDAV:  cpu time   16.1876: real time   16.1927
       DOS:  cpu time    0.0072: real time    0.0072
    CHARGE:  cpu time    0.1362: real time    0.1362
    MIXING:  cpu time    0.0024: real time    0.0024
    --------------------------------------------
      LOOP:  cpu time   16.3334: real time   16.3385

 eigenvalue-minimisations  :  9060
 total energy-change (2. order) :-0.5035301E+01  (-0.4986761E+01)
 number of electron     667.9996866 magnetization 
 augmentation part      217.8840087 magnetization 

 Broyden mixing:
  rms(total) = 0.32702E+02    rms(broyden)= 0.32639E+02
  rms(prec ) = 0.35256E+02
  weight for this iteration     100.00

 Free energy of the ion-electron system (eV)
  ---------------------------------------------------
  alpha Z        PSCENC =      4808.69657484
  Ewald energy   TEWEN  =    -65452.34749412
  -Hartree energ DENC   =    -30315.70294850
  -exchange      EXHF   =         0.00000000
  -V(xc)+E(xc)   XCENC  =      3051.64997037
  PAW double counting   =     80006.67163064   -81130.40725053
  entropy T*S    EENTRO =        -0.08746319
  eigenvalues    EBANDS =    -10034.71202937
  atomic energy  EATOM  =     98728.23761220
  Solvation  Ediel_sol  =         0.00000000
  ---------------------------------------------------
  free energy    TOTEN  =      -338.00139767 eV

  energy without entropy =     -337.91393449  energy(sigma->0) =     -337.95766608


--------------------------------------------------------------------------------------------------------




--------------------------------------- Iteration      1(   6)  ---------------------------------------


    POTLOK:  cpu time    0.0224: real time    0.0231
    SETDIJ:  cpu time    0.0080: real time    0.0080
     EDDAV:  cpu time   14.6488: real time   14.7522
       DOS:  cpu time    0.0073: real time    0.0073
    CHARGE:  cpu time    0.1316: real time    0.1316
    MIXING:  cpu time    0.0024: real time    0.0024
    --------------------------------------------
      LOOP:  cpu time   14.8204: real time   14.9246

 eigenvalue-minimisations  :  7572
 total energy-change (2. order) :-0.3372761E+03  (-0.5459600E+03)
 number of electron     667.9994960 magnetization 
 augmentation part      274.0913786 magnetization 

 Broyden mixing:
  rms(total) = 0.16595E+02    rms(broyden)= 0.16497E+02
  rms(prec ) = 0.23055E+02
  weight for this iteration     100.00

 eigenvalues of (default mixing * dielectric matrix)
  average eigenvalue GAMMA=   0.8134
  0.8134

 Free energy of the ion-electron system (eV)
  ---------------------------------------------------
  alpha Z        PSCENC =      4808.69657484
  Ewald energy   TEWEN  =    -65452.34749412
  -Hartree energ DENC   =    -26265.75846568
  -exchange      EXHF   =         0.00000000
  -V(xc)+E(xc)   XCENC  =      2914.39660480
  PAW double counting   =     91506.65319598   -92161.46669727
  entropy T*S    EENTRO =        -0.06473083
  eigenvalues    EBANDS =    -14753.62408081
  atomic energy  EATOM  =     98728.23761220
  Solvation  Ediel_sol  =         0.00000000
  ---------------------------------------------------
  free energy    TOTEN  =      -675.27748091 eV

  energy without entropy =     -675.21275007  energy(sigma->0) =     -675.24511549


--------------------------------------------------------------------------------------------------------




--------------------------------------- Iteration      1(   7)  ---------------------------------------


    POTLOK:  cpu time    0.0212: real time    0.0214
    SETDIJ:  cpu time    0.0079: real time    0.0079
     EDDAV:  cpu time   15.6314: real time   15.6431
       DOS:  cpu time    0.0071: real time    0.0071
    CHARGE:  cpu time    0.1293: real time    0.1293
    MIXING:  cpu time    0.0024: real time    0.0024
    --------------------------------------------
      LOOP:  cpu time   15.7993: real time   15.8113

 eigenvalue-minimisations  :  8412
 total energy-change (2. order) : 0.3908662E+03  (-0.2833591E+03)
 number of electron     667.9995409 magnetization 
 augmentation part      276.8128029 magnetization 

 Broyden mixing:
  rms(total) = 0.10160E+02    rms(broyden)= 0.10148E+02
  rms(prec ) = 0.17857E+02
  weight for this iteration     100.00

 eigenvalues of (default mixing * dielectric matrix)
  average eigenvalue GAMMA=   0.6860
  0.8207  0.5513

 Free energy of the ion-electron system (eV)
  ---------------------------------------------------
  alpha Z        PSCENC =      4808.69657484
  Ewald energy   TEWEN  =    -65452.34749412
  -Hartree energ DENC   =    -28028.42297214
  -exchange      EXHF   =         0.00000000
  -V(xc)+E(xc)   XCENC  =      2959.11991284
  PAW double counting   =     96859.80455948   -97765.36946505
  entropy T*S    EENTRO =        -0.04943817
  eigenvalues    EBANDS =    -12394.08057683
  atomic energy  EATOM  =     98728.23761220
  Solvation  Ediel_sol  =         0.00000000
  ---------------------------------------------------
  free energy    TOTEN  =      -284.41128694 eV

  energy without entropy =     -284.36184878  energy(sigma->0) =     -284.38656786


--------------------------------------------------------------------------------------------------------




--------------------------------------- Iteration      1(   8)  ---------------------------------------


    POTLOK:  cpu time    0.0209: real time    0.0211
    SETDIJ:  cpu time    0.0076: real time    0.0076
     EDDAV:  cpu time   16.0558: real time   16.0681
       DOS:  cpu time    0.0068: real time    0.0068
    CHARGE:  cpu time    0.1294: real time    0.1294
    MIXING:  cpu time    0.0025: real time    0.0025
    --------------------------------------------
      LOOP:  cpu time   16.2229: real time   16.2354

 eigenvalue-minimisations  :  8886
 total energy-change (2. order) : 0.7960718E+02  (-0.1407910E+03)
 number of electron     667.9995335 magnetization 
 augmentation part      266.1700680 magnetization 

 Broyden mixing:
  rms(total) = 0.72435E+01    rms(broyden)= 0.72314E+01
  rms(prec ) = 0.13656E+02
  weight for this iteration     100.00

 eigenvalues of (default mixing * dielectric matrix)
  average eigenvalue GAMMA=   0.6473
  0.9790  0.6614  0.3016

 Free energy of the ion-electron system (eV)
  ---------------------------------------------------
  alpha Z        PSCENC =      4808.69657484
  Ewald energy   TEWEN  =    -65452.34749412
  -Hartree energ DENC   =    -28776.83214487
  -exchange      EXHF   =         0.00000000
  -V(xc)+E(xc)   XCENC  =      2981.11703638
  PAW double counting   =    100676.83571121  -101622.73507698
  entropy T*S    EENTRO =        -0.06836865
  eigenvalues    EBANDS =    -11547.70796040
  atomic energy  EATOM  =     98728.23761220
  Solvation  Ediel_sol  =         0.00000000
  ---------------------------------------------------
  free energy    TOTEN  =      -204.80411041 eV

  energy without entropy =     -204.73574176  energy(sigma->0) =     -204.76992608


--------------------------------------------------------------------------------------------------------




--------------------------------------- Iteration      1(   9)  ---------------------------------------


    POTLOK:  cpu time    0.0201: real time    0.0203
    SETDIJ:  cpu time    0.0075: real time    0.0075
     EDDAV:  cpu time   15.9106: real time   15.9141
       DOS:  cpu time    0.0075: real time    0.0075
    CHARGE:  cpu time    0.1337: real time    0.1337
    MIXING:  cpu time    0.0030: real time    0.0030
    --------------------------------------------
      LOOP:  cpu time   16.0825: real time   16.0862

 eigenvalue-minimisations  :  8784
 total energy-change (2. order) : 0.1700479E+02  (-0.7456180E+02)
 number of electron     667.9995503 magnetization 
 augmentation part      251.6310604 magnetization 

 Broyden mixing:
  rms(total) = 0.89573E+01    rms(broyden)= 0.89427E+01
  rms(prec ) = 0.11677E+02
  weight for this iteration     100.00

 eigenvalues of (default mixing * dielectric matrix)
  average eigenvalue GAMMA=   0.6715
  1.4717  0.4893  0.4893  0.2358

 Free energy of the ion-electron system (eV)
  ---------------------------------------------------
  alpha Z        PSCENC =      4808.69657484
  Ewald energy   TEWEN  =    -65452.34749412
  -Hartree energ DENC   =    -29147.98782860
  -exchange      EXHF   =         0.00000000
  -V(xc)+E(xc)   XCENC  =      2992.46831890
  PAW double counting   =    104600.83158512  -105530.82249041
  entropy T*S    EENTRO =        -0.07860521
  eigenvalues    EBANDS =    -11186.79699041
  atomic energy  EATOM  =     98728.23761220
  Solvation  Ediel_sol  =         0.00000000
  ---------------------------------------------------
  free energy    TOTEN  =      -187.79931769 eV

  energy without entropy =     -187.72071248  energy(sigma->0) =     -187.76001508


--------------------------------------------------------------------------------------------------------




--------------------------------------- Iteration      1(  10)  ---------------------------------------


    POTLOK:  cpu time    0.0217: real time    0.0221
    SETDIJ:  cpu time    0.0079: real time    0.0079
     EDDAV:  cpu time   16.2201: real time   16.2964
       DOS:  cpu time    0.0072: real time    0.0072
    CHARGE:  cpu time    0.1323: real time    0.1323
    MIXING:  cpu time    0.0032: real time    0.0032
    --------------------------------------------
      LOOP:  cpu time   16.3923: real time   16.4691

 eigenvalue-minimisations  :  8796
 total energy-change (2. order) : 0.1598605E+02  (-0.2343580E+02)
 number of electron     667.9996541 magnetization 
 augmentation part      243.9336261 magnetization 

 Broyden mixing:
  rms(total) = 0.99583E+01    rms(broyden)= 0.99336E+01
  rms(prec ) = 0.12335E+02
  weight for this iteration     100.00

 eigenvalues of (default mixing * dielectric matrix)
  average eigenvalue GAMMA=   0.6725
  1.8652  0.5062  0.5062  0.2426  0.2426

 Free energy of the ion-electron system (eV)
  ---------------------------------------------------
  alpha Z        PSCENC =      4808.69657484
  Ewald energy   TEWEN  =    -65452.34749412
  -Hartree energ DENC   =    -29195.47992712
  -exchange      EXHF   =         0.00000000
  -V(xc)+E(xc)   XCENC  =      2991.41975315
  PAW double counting   =    108033.42816023  -108937.32741933
  entropy T*S    EENTRO =        -0.09133126
  eigenvalues    EBANDS =    -11148.34920053
  atomic energy  EATOM  =     98728.23761220
  Solvation  Ediel_sol  =         0.00000000
  ---------------------------------------------------
  free energy    TOTEN  =      -171.81327195 eV

  energy without entropy =     -171.72194069  energy(sigma->0) =     -171.76760632


--------------------------------------------------------------------------------------------------------




--------------------------------------- Iteration      1(  11)  ---------------------------------------


    POTLOK:  cpu time    0.0208: real time    0.0215
    SETDIJ:  cpu time    0.0079: real time    0.0079
     EDDAV:  cpu time   15.6797: real time   15.6898
       DOS:  cpu time    0.0074: real time    0.0074
    CHARGE:  cpu time    0.1312: real time    0.1312
    MIXING:  cpu time    0.0030: real time    0.0030
    --------------------------------------------
      LOOP:  cpu time   15.8501: real time   15.8608

 eigenvalue-minimisations  :  8616
 total energy-change (2. order) : 0.1391086E+02  (-0.1094105E+02)
 number of electron     667.9995274 magnetization 
 augmentation part      246.2538542 magnetization 

 Broyden mixing:
  rms(total) = 0.75873E+01    rms(broyden)= 0.75509E+01
  rms(prec ) = 0.94884E+01
  weight for this iteration     100.00

 eigenvalues of (default mixing * dielectric matrix)
  average eigenvalue GAMMA=   0.6521
  2.1452  0.5231  0.5231  0.2889  0.2889  0.1435

 Free energy of the ion-electron system (eV)
  ---------------------------------------------------
  alpha Z        PSCENC =      4808.69657484
  Ewald energy   TEWEN  =    -65452.34749412
  -Hartree energ DENC   =    -28990.02766934
  -exchange      EXHF   =         0.00000000
  -V(xc)+E(xc)   XCENC  =      2984.43689094
  PAW double counting   =    110087.67345430  -110955.68634974
  entropy T*S    EENTRO =        -0.08473963
  eigenvalues    EBANDS =    -11368.80069261
  atomic energy  EATOM  =     98728.23761220
  Solvation  Ediel_sol  =         0.00000000
  ---------------------------------------------------
  free energy    TOTEN  =      -157.90241318 eV

  energy without entropy =     -157.81767355  energy(sigma->0) =     -157.86004336


--------------------------------------------------------------------------------------------------------




--------------------------------------- Iteration      1(  12)  ---------------------------------------


    POTLOK:  cpu time    0.0212: real time    0.0214
    SETDIJ:  cpu time    0.0076: real time    0.0076
     EDDAV:  cpu time   15.8045: real time   15.8715
       DOS:  cpu time    0.0074: real time    0.0074
    CHARGE:  cpu time    0.1312: real time    0.1313
    MIXING:  cpu time    0.0031: real time    0.0031
    --------------------------------------------
      LOOP:  cpu time   15.9750: real time   16.0422

 eigenvalue-minimisations  :  8592
 total energy-change (2. order) : 0.1348607E+02  (-0.5326901E+01)
 number of electron     667.9995580 magnetization 
 augmentation part      251.4704545 magnetization 

 Broyden mixing:
  rms(total) = 0.33465E+01    rms(broyden)= 0.33153E+01
  rms(prec ) = 0.41106E+01
  weight for this iteration     100.00

 eigenvalues of (default mixing * dielectric matrix)
  average eigenvalue GAMMA=   0.6269
  2.2804  0.5163  0.5163  0.3535  0.3535  0.1842  0.1842

 Free energy of the ion-electron system (eV)
  ---------------------------------------------------
  alpha Z        PSCENC =      4808.69657484
  Ewald energy   TEWEN  =    -65452.34749412
  -Hartree energ DENC   =    -28846.54941668
  -exchange      EXHF   =         0.00000000
  -V(xc)+E(xc)   XCENC  =      2979.26664553
  PAW double counting   =    111311.12384962  -112143.46086894
  entropy T*S    EENTRO =        -0.08882600
  eigenvalues    EBANDS =    -11529.29441709
  atomic energy  EATOM  =     98728.23761220
  Solvation  Ediel_sol  =         0.00000000
  ---------------------------------------------------
  free energy    TOTEN  =      -144.41634065 eV

  energy without entropy =     -144.32751465  energy(sigma->0) =     -144.37192765


--------------------------------------------------------------------------------------------------------




--------------------------------------- Iteration      1(  13)  ---------------------------------------


    POTLOK:  cpu time    0.0203: real time    0.0203
    SETDIJ:  cpu time    0.0076: real time    0.0076
     EDDAV:  cpu time   15.9873: real time   16.0493
       DOS:  cpu time    0.0076: real time    0.0076
    CHARGE:  cpu time    0.1353: real time    0.1354
    MIXING:  cpu time    0.0037: real time    0.0037
    --------------------------------------------
      LOOP:  cpu time   16.1617: real time   16.2238

 eigenvalue-minimisations  :  8736
 total energy-change (2. order) : 0.2108235E+01  (-0.2179026E+01)
 number of electron     667.9995612 magnetization 
 augmentation part      252.2703795 magnetization 

 Broyden mixing:
  rms(total) = 0.19890E+01    rms(broyden)= 0.19818E+01
  rms(prec ) = 0.23876E+01
  weight for this iteration     100.00

 eigenvalues of (default mixing * dielectric matrix)
  average eigenvalue GAMMA=   0.6348
  2.2852  0.5735  0.5735  0.6141  0.3879  0.2420  0.2420  0.1599

 Free energy of the ion-electron system (eV)
  ---------------------------------------------------
  alpha Z        PSCENC =      4808.69657484
  Ewald energy   TEWEN  =    -65452.34749412
  -Hartree energ DENC   =    -28841.55557959
  -exchange      EXHF   =         0.00000000
  -V(xc)+E(xc)   XCENC  =      2978.28033493
  PAW double counting   =    111810.67645377  -112613.93372405
  entropy T*S    EENTRO =        -0.08172554
  eigenvalues    EBANDS =    -11560.28055771
  atomic energy  EATOM  =     98728.23761220
  Solvation  Ediel_sol  =         0.00000000
  ---------------------------------------------------
  free energy    TOTEN  =      -142.30810527 eV

  energy without entropy =     -142.22637974  energy(sigma->0) =     -142.26724251


--------------------------------------------------------------------------------------------------------




--------------------------------------- Iteration      1(  14)  ---------------------------------------


    POTLOK:  cpu time    0.0219: real time    0.0221
    SETDIJ:  cpu time    0.0079: real time    0.0079
     EDDAV:  cpu time   16.4273: real time   17.2284
       DOS:  cpu time    0.0066: real time    0.0066
    CHARGE:  cpu time    0.1318: real time    0.1318
    MIXING:  cpu time    0.0036: real time    0.0036
    --------------------------------------------
      LOOP:  cpu time   16.5992: real time   17.4005

 eigenvalue-minimisations  :  8640
 total energy-change (2. order) :-0.7531325E+00  (-0.9771308E+00)
 number of electron     667.9995515 magnetization 
 augmentation part      252.3462101 magnetization 

 Broyden mixing:
  rms(total) = 0.16950E+01    rms(broyden)= 0.16921E+01
  rms(prec ) = 0.25693E+01
  weight for this iteration     100.00

 eigenvalues of (default mixing * dielectric matrix)
  average eigenvalue GAMMA=   0.6277
  2.2690  0.6666  0.6666  0.5542  0.5542  0.2864  0.2864  0.2012  0.1643

 Free energy of the ion-electron system (eV)
  ---------------------------------------------------
  alpha Z        PSCENC =      4808.69657484
  Ewald energy   TEWEN  =    -65452.34749412
  -Hartree energ DENC   =    -28853.50601562
  -exchange      EXHF   =         0.00000000
  -V(xc)+E(xc)   XCENC  =      2978.44625923
  PAW double counting   =    111696.48358103  -112455.85263503
  entropy T*S    EENTRO =        -0.08713824
  eigenvalues    EBANDS =    -11593.13198208
  atomic energy  EATOM  =     98728.23761220
  Solvation  Ediel_sol  =         0.00000000
  ---------------------------------------------------
  free energy    TOTEN  =      -143.06123781 eV

  energy without entropy =     -142.97409957  energy(sigma->0) =     -143.01766869


--------------------------------------------------------------------------------------------------------




--------------------------------------- Iteration      1(  15)  ---------------------------------------


    POTLOK:  cpu time    0.0217: real time    0.0217
    SETDIJ:  cpu time    0.0079: real time    0.0079
     EDDAV:  cpu time   15.7645: real time   15.8247
       DOS:  cpu time    0.0071: real time    0.0071
    CHARGE:  cpu time    0.1315: real time    0.1315
    MIXING:  cpu time    0.0036: real time    0.0036
    --------------------------------------------
      LOOP:  cpu time   15.9364: real time   15.9965

 eigenvalue-minimisations  :  8544
 total energy-change (2. order) : 0.1053531E+01  (-0.7798307E+00)
 number of electron     667.9995589 magnetization 
 augmentation part      252.3432964 magnetization 

 Broyden mixing:
  rms(total) = 0.12893E+01    rms(broyden)= 0.12858E+01
  rms(prec ) = 0.16669E+01
  weight for this iteration     100.00

 eigenvalues of (default mixing * dielectric matrix)
  average eigenvalue GAMMA=   0.6966
  2.4913  1.3629  0.8511  0.5368  0.5368  0.3248  0.2572  0.2572  0.1610  0.1871

 Free energy of the ion-electron system (eV)
  ---------------------------------------------------
  alpha Z        PSCENC =      4808.69657484
  Ewald energy   TEWEN  =    -65452.34749412
  -Hartree energ DENC   =    -28856.56132212
  -exchange      EXHF   =         0.00000000
  -V(xc)+E(xc)   XCENC  =      2978.76001048
  PAW double counting   =    111396.31177632  -112129.97690551
  entropy T*S    EENTRO =        -0.09038335
  eigenvalues    EBANDS =    -11615.03757600
  atomic energy  EATOM  =     98728.23761220
  Solvation  Ediel_sol  =         0.00000000
  ---------------------------------------------------
  free energy    TOTEN  =      -142.00770727 eV

  energy without entropy =     -141.91732392  energy(sigma->0) =     -141.96251559


--------------------------------------------------------------------------------------------------------




--------------------------------------- Iteration      1(  16)  ---------------------------------------


    POTLOK:  cpu time    0.0210: real time    0.0213
    SETDIJ:  cpu time    0.0076: real time    0.0076
     EDDAV:  cpu time   15.9847: real time   15.9917
       DOS:  cpu time    0.0072: real time    0.0072
    CHARGE:  cpu time    0.1347: real time    0.1347
    MIXING:  cpu time    0.0041: real time    0.0041
    --------------------------------------------
      LOOP:  cpu time   16.1592: real time   16.1665

 eigenvalue-minimisations  :  8832
 total energy-change (2. order) :-0.1425244E+00  (-0.4897276E+00)
 number of electron     667.9995620 magnetization 
 augmentation part      253.0630849 magnetization 

 Broyden mixing:
  rms(total) = 0.89544E+00    rms(broyden)= 0.89140E+00
  rms(prec ) = 0.14233E+01
  weight for this iteration     100.00

 eigenvalues of (default mixing * dielectric matrix)
  average eigenvalue GAMMA=   0.6973
  2.6049  1.6103  0.8512  0.5361  0.5361  0.3899  0.2918  0.2514  0.2514  0.1608
  0.1865

 Free energy of the ion-electron system (eV)
  ---------------------------------------------------
  alpha Z        PSCENC =      4808.69657484
  Ewald energy   TEWEN  =    -65452.34749412
  -Hartree energ DENC   =    -28866.62526084
  -exchange      EXHF   =         0.00000000
  -V(xc)+E(xc)   XCENC  =      2979.46961604
  PAW double counting   =    110917.12578544  -111596.17139125
  entropy T*S    EENTRO =        -0.08328330
  eigenvalues    EBANDS =    -11660.45239068
  atomic energy  EATOM  =     98728.23761220
  Solvation  Ediel_sol  =         0.00000000
  ---------------------------------------------------
  free energy    TOTEN  =      -142.15023168 eV

  energy without entropy =     -142.06694838  energy(sigma->0) =     -142.10859003


--------------------------------------------------------------------------------------------------------




--------------------------------------- Iteration      1(  17)  ---------------------------------------


    POTLOK:  cpu time    0.0214: real time    0.0215
    SETDIJ:  cpu time    0.0078: real time    0.0078
     EDDAV:  cpu time   15.7300: real time   15.7563
       DOS:  cpu time    0.0074: real time    0.0074
    CHARGE:  cpu time    0.1344: real time    0.1344
    MIXING:  cpu time    0.0043: real time    0.0042
    --------------------------------------------
      LOOP:  cpu time   15.9052: real time   15.9317

 eigenvalue-minimisations  :  8580
 total energy-change (2. order) : 0.5456584E+00  (-0.3134629E+00)
 number of electron     667.9995555 magnetization 
 augmentation part      253.1189603 magnetization 

 Broyden mixing:
  rms(total) = 0.40802E+00    rms(broyden)= 0.40344E+00
  rms(prec ) = 0.63892E+00
  weight for this iteration     100.00

 eigenvalues of (default mixing * dielectric matrix)
  average eigenvalue GAMMA=   0.7194
  2.6741  1.8850  0.7996  0.7996  0.5337  0.5337  0.3350  0.2570  0.2570  0.2168
  0.1602  0.1817

 Free energy of the ion-electron system (eV)
  ---------------------------------------------------
  alpha Z        PSCENC =      4808.69657484
  Ewald energy   TEWEN  =    -65452.34749412
  -Hartree energ DENC   =    -28878.39806491
  -exchange      EXHF   =         0.00000000
  -V(xc)+E(xc)   XCENC  =      2980.12417718
  PAW double counting   =    110649.85748390  -111305.19284651
  entropy T*S    EENTRO =        -0.08833275
  eigenvalues    EBANDS =    -11672.49368308
  atomic energy  EATOM  =     98728.23761220
  Solvation  Ediel_sol  =         0.00000000
  ---------------------------------------------------
  free energy    TOTEN  =      -141.60457325 eV

  energy without entropy =     -141.51624050  energy(sigma->0) =     -141.56040688


--------------------------------------------------------------------------------------------------------




--------------------------------------- Iteration      1(  18)  ---------------------------------------


    POTLOK:  cpu time    0.0217: real time    0.0222
    SETDIJ:  cpu time    0.0079: real time    0.0079
     EDDAV:  cpu time   16.2562: real time   16.3208
       DOS:  cpu time    0.0073: real time    0.0073
    CHARGE:  cpu time    0.1311: real time    0.1311
    MIXING:  cpu time    0.0041: real time    0.0041
    --------------------------------------------
      LOOP:  cpu time   16.4282: real time   16.4934

 eigenvalue-minimisations  :  8868
 total energy-change (2. order) :-0.3929951E-01  (-0.1207352E+00)
 number of electron     667.9995558 magnetization 
 augmentation part      253.0818739 magnetization 

 Broyden mixing:
  rms(total) = 0.37156E+00    rms(broyden)= 0.36977E+00
  rms(prec ) = 0.59946E+00
  weight for this iteration     100.00

 eigenvalues of (default mixing * dielectric matrix)
  average eigenvalue GAMMA=   0.7158
  2.4991  2.2228  0.9029  0.9029  0.5356  0.5356  0.3717  0.2618  0.2618  0.2658
  0.2045  0.1603  0.1805

 Free energy of the ion-electron system (eV)
  ---------------------------------------------------
  alpha Z        PSCENC =      4808.69657484
  Ewald energy   TEWEN  =    -65452.34749412
  -Hartree energ DENC   =    -28894.15366873
  -exchange      EXHF   =         0.00000000
  -V(xc)+E(xc)   XCENC  =      2980.89550756
  PAW double counting   =    110400.52976709  -111039.82175852
  entropy T*S    EENTRO =        -0.08831956
  eigenvalues    EBANDS =    -11673.59209352
  atomic energy  EATOM  =     98728.23761220
  Solvation  Ediel_sol  =         0.00000000
  ---------------------------------------------------
  free energy    TOTEN  =      -141.64387276 eV

  energy without entropy =     -141.55555320  energy(sigma->0) =     -141.59971298


--------------------------------------------------------------------------------------------------------




--------------------------------------- Iteration      1(  19)  ---------------------------------------


    POTLOK:  cpu time    0.0202: real time    0.0205
    SETDIJ:  cpu time    0.0076: real time    0.0076
     EDDAV:  cpu time   15.7591: real time   15.7700
       DOS:  cpu time    0.0072: real time    0.0072
    CHARGE:  cpu time    0.1313: real time    0.1313
    MIXING:  cpu time    0.0042: real time    0.0042
    --------------------------------------------
      LOOP:  cpu time   15.9296: real time   15.9407

 eigenvalue-minimisations  :  8592
 total energy-change (2. order) : 0.9956583E-01  (-0.6237165E-01)
 number of electron     667.9995556 magnetization 
 augmentation part      252.9679496 magnetization 

 Broyden mixing:
  rms(total) = 0.21100E+00    rms(broyden)= 0.20931E+00
  rms(prec ) = 0.32923E+00
  weight for this iteration     100.00

 eigenvalues of (default mixing * dielectric matrix)
  average eigenvalue GAMMA=   0.7195
  2.4440  2.4440  0.9895  0.9895  0.5382  0.5382  0.5200  0.2968  0.2689  0.2689
  0.2361  0.1605  0.2002  0.1781

 Free energy of the ion-electron system (eV)
  ---------------------------------------------------
  alpha Z        PSCENC =      4808.69657484
  Ewald energy   TEWEN  =    -65452.34749412
  -Hartree energ DENC   =    -28905.11934025
  -exchange      EXHF   =         0.00000000
  -V(xc)+E(xc)   XCENC  =      2981.44421580
  PAW double counting   =    110232.70394882  -110864.79084687
  entropy T*S    EENTRO =        -0.08681104
  eigenvalues    EBANDS =    -11670.28216630
  atomic energy  EATOM  =     98728.23761220
  Solvation  Ediel_sol  =         0.00000000
  ---------------------------------------------------
  free energy    TOTEN  =      -141.54430693 eV

  energy without entropy =     -141.45749589  energy(sigma->0) =     -141.50090141


--------------------------------------------------------------------------------------------------------




--------------------------------------- Iteration      1(  20)  ---------------------------------------


    POTLOK:  cpu time    0.0208: real time    0.0213
    SETDIJ:  cpu time    0.0076: real time    0.0076
     EDDAV:  cpu time   15.9153: real time   15.9186
       DOS:  cpu time    0.0070: real time    0.0070
    CHARGE:  cpu time    0.1335: real time    0.1335
    MIXING:  cpu time    0.0047: real time    0.0047
    --------------------------------------------
      LOOP:  cpu time   16.0889: real time   16.0926

 eigenvalue-minimisations  :  8808
 total energy-change (2. order) : 0.2333613E-02  (-0.2259806E-01)
 number of electron     667.9995573 magnetization 
 augmentation part      252.9476902 magnetization 

 Broyden mixing:
  rms(total) = 0.16919E+00    rms(broyden)= 0.16845E+00
  rms(prec ) = 0.27801E+00
  weight for this iteration     100.00

 eigenvalues of (default mixing * dielectric matrix)
  average eigenvalue GAMMA=   0.7115
  2.4731  2.4731  1.0623  1.0623  0.6329  0.5380  0.5380  0.3169  0.3169  0.2560
  0.2560  0.1606  0.2109  0.1785  0.1970

 Free energy of the ion-electron system (eV)
  ---------------------------------------------------
  alpha Z        PSCENC =      4808.69657484
  Ewald energy   TEWEN  =    -65452.34749412
  -Hartree energ DENC   =    -28911.27859873
  -exchange      EXHF   =         0.00000000
  -V(xc)+E(xc)   XCENC  =      2981.75405248
  PAW double counting   =    110156.55059641  -110784.07183180
  entropy T*S    EENTRO =        -0.08706490
  eigenvalues    EBANDS =    -11668.99581969
  atomic energy  EATOM  =     98728.23761220
  Solvation  Ediel_sol  =         0.00000000
  ---------------------------------------------------
  free energy    TOTEN  =      -141.54197332 eV

  energy without entropy =     -141.45490842  energy(sigma->0) =     -141.49844087


--------------------------------------------------------------------------------------------------------




--------------------------------------- Iteration      1(  21)  ---------------------------------------


    POTLOK:  cpu time    0.0210: real time    0.0213
    SETDIJ:  cpu time    0.0080: real time    0.0080
     EDDAV:  cpu time   15.9193: real time   16.0747
       DOS:  cpu time    0.0074: real time    0.0074
    CHARGE:  cpu time    0.1332: real time    0.1332
    MIXING:  cpu time    0.0050: real time    0.0051
    --------------------------------------------
      LOOP:  cpu time   16.0939: real time   16.2496

 eigenvalue-minimisations  :  8568
 total energy-change (2. order) : 0.1628648E-01  (-0.1123966E-01)
 number of electron     667.9995565 magnetization 
 augmentation part      252.9431108 magnetization 

 Broyden mixing:
  rms(total) = 0.93792E-01    rms(broyden)= 0.93276E-01
  rms(prec ) = 0.15412E+00
  weight for this iteration     100.00

 eigenvalues of (default mixing * dielectric matrix)
  average eigenvalue GAMMA=   0.7087
  2.5096  2.5096  1.2380  0.9584  0.7439  0.5375  0.5375  0.4633  0.3491  0.2635
  0.2635  0.2387  0.2060  0.1606  0.1849  0.1744

 Free energy of the ion-electron system (eV)
  ---------------------------------------------------
  alpha Z        PSCENC =      4808.69657484
  Ewald energy   TEWEN  =    -65452.34749412
  -Hartree energ DENC   =    -28913.37098997
  -exchange      EXHF   =         0.00000000
  -V(xc)+E(xc)   XCENC  =      2981.89482559
  PAW double counting   =    110127.90616965  -110752.51885145
  entropy T*S    EENTRO =        -0.08751413
  eigenvalues    EBANDS =    -11669.93601944
  atomic energy  EATOM  =     98728.23761220
  Solvation  Ediel_sol  =         0.00000000
  ---------------------------------------------------
  free energy    TOTEN  =      -141.52568684 eV

  energy without entropy =     -141.43817271  energy(sigma->0) =     -141.48192978


--------------------------------------------------------------------------------------------------------




--------------------------------------- Iteration      1(  22)  ---------------------------------------


    POTLOK:  cpu time    0.0216: real time    0.0219
    SETDIJ:  cpu time    0.0079: real time    0.0079
     EDDAV:  cpu time   15.6370: real time   15.6414
       DOS:  cpu time    0.0074: real time    0.0074
    CHARGE:  cpu time    0.1312: real time    0.1312
    MIXING:  cpu time    0.0048: real time    0.0048
    --------------------------------------------
      LOOP:  cpu time   15.8098: real time   15.8147

 eigenvalue-minimisations  :  8580
 total energy-change (2. order) : 0.2662579E-02  (-0.5221603E-02)
 number of electron     667.9995562 magnetization 
 augmentation part      252.9588967 magnetization 

 Broyden mixing:
  rms(total) = 0.68753E-01    rms(broyden)= 0.68344E-01
  rms(prec ) = 0.10848E+00
  weight for this iteration     100.00

 eigenvalues of (default mixing * dielectric matrix)
  average eigenvalue GAMMA=   0.7070
  2.5447  2.5447  1.3323  0.9080  0.9080  0.6093  0.5369  0.5369  0.3512  0.2698
  0.2698  0.2721  0.2163  0.2094  0.1606  0.1790  0.1703

 Free energy of the ion-electron system (eV)
  ---------------------------------------------------
  alpha Z        PSCENC =      4808.69657484
  Ewald energy   TEWEN  =    -65452.34749412
  -Hartree energ DENC   =    -28914.06373881
  -exchange      EXHF   =         0.00000000
  -V(xc)+E(xc)   XCENC  =      2981.95256681
  PAW double counting   =    110118.00425652  -110740.72163438
  entropy T*S    EENTRO =        -0.08679250
  eigenvalues    EBANDS =    -11671.19437481
  atomic energy  EATOM  =     98728.23761220
  Solvation  Ediel_sol  =         0.00000000
  ---------------------------------------------------
  free energy    TOTEN  =      -141.52302426 eV

  energy without entropy =     -141.43623176  energy(sigma->0) =     -141.47962801


--------------------------------------------------------------------------------------------------------




--------------------------------------- Iteration      1(  23)  ---------------------------------------


    POTLOK:  cpu time    0.0204: real time    0.0204
    SETDIJ:  cpu time    0.0076: real time    0.0076
     EDDAV:  cpu time   15.4629: real time   15.5231
       DOS:  cpu time    0.0070: real time    0.0071
    CHARGE:  cpu time    0.1313: real time    0.1313
    MIXING:  cpu time    0.0049: real time    0.0049
    --------------------------------------------
      LOOP:  cpu time   15.6341: real time   15.6944

 eigenvalue-minimisations  :  8436
 total energy-change (2. order) : 0.2727233E-02  (-0.2004067E-02)
 number of electron     667.9995562 magnetization 
 augmentation part      252.9683513 magnetization 

 Broyden mixing:
  rms(total) = 0.37807E-01    rms(broyden)= 0.37578E-01
  rms(prec ) = 0.56676E-01
  weight for this iteration     100.00

 eigenvalues of (default mixing * dielectric matrix)
  average eigenvalue GAMMA=   0.7103
  2.5699  2.5699  1.4135  1.1029  0.7867  0.7867  0.5358  0.5358  0.4326  0.3044
  0.3044  0.2563  0.2563  0.2142  0.2075  0.1606  0.1787  0.1694

 Free energy of the ion-electron system (eV)
  ---------------------------------------------------
  alpha Z        PSCENC =      4808.69657484
  Ewald energy   TEWEN  =    -65452.34749412
  -Hartree energ DENC   =    -28914.70409819
  -exchange      EXHF   =         0.00000000
  -V(xc)+E(xc)   XCENC  =      2981.99702063
  PAW double counting   =    110115.46441415  -110736.74447232
  entropy T*S    EENTRO =        -0.08707806
  eigenvalues    EBANDS =    -11672.03277614
  atomic energy  EATOM  =     98728.23761220
  Solvation  Ediel_sol  =         0.00000000
  ---------------------------------------------------
  free energy    TOTEN  =      -141.52029703 eV

  energy without entropy =     -141.43321896  energy(sigma->0) =     -141.47675799


--------------------------------------------------------------------------------------------------------




--------------------------------------- Iteration      1(  24)  ---------------------------------------


    POTLOK:  cpu time    0.0208: real time    0.0212
    SETDIJ:  cpu time    0.0075: real time    0.0075
     EDDAV:  cpu time   15.6130: real time   15.6317
       DOS:  cpu time    0.0073: real time    0.0074
    CHARGE:  cpu time    0.1353: real time    0.1362
    MIXING:  cpu time    0.0064: real time    0.0064
    --------------------------------------------
      LOOP:  cpu time   15.7905: real time   15.8105

 eigenvalue-minimisations  :  8496
 total energy-change (2. order) : 0.3576429E-03  (-0.9718246E-03)
 number of electron     667.9995563 magnetization 
 augmentation part      252.9733517 magnetization 

 Broyden mixing:
  rms(total) = 0.27156E-01    rms(broyden)= 0.27007E-01
  rms(prec ) = 0.41422E-01
  weight for this iteration     100.00

 eigenvalues of (default mixing * dielectric matrix)
  average eigenvalue GAMMA=   0.7176
  2.6191  2.6191  1.5416  1.2711  0.8329  0.8329  0.5366  0.5366  0.5144  0.3218
  0.3218  0.2606  0.2606  0.2437  0.2062  0.2062  0.1606  0.1784  0.1694

 Free energy of the ion-electron system (eV)
  ---------------------------------------------------
  alpha Z        PSCENC =      4808.69657484
  Ewald energy   TEWEN  =    -65452.34749412
  -Hartree energ DENC   =    -28915.43641557
  -exchange      EXHF   =         0.00000000
  -V(xc)+E(xc)   XCENC  =      2982.02822674
  PAW double counting   =    110118.23323843  -110738.68751076
  entropy T*S    EENTRO =        -0.08699008
  eigenvalues    EBANDS =    -11672.15718105
  atomic energy  EATOM  =     98728.23761220
  Solvation  Ediel_sol  =         0.00000000
  ---------------------------------------------------
  free energy    TOTEN  =      -141.51993938 eV

  energy without entropy =     -141.43294930  energy(sigma->0) =     -141.47644434


--------------------------------------------------------------------------------------------------------




--------------------------------------- Iteration      1(  25)  ---------------------------------------


    POTLOK:  cpu time    0.0216: real time    0.0218
    SETDIJ:  cpu time    0.0079: real time    0.0080
     EDDAV:  cpu time   16.6883: real time   16.8253
       DOS:  cpu time    0.0074: real time    0.0074
    CHARGE:  cpu time    0.1322: real time    0.1322
    MIXING:  cpu time    0.0058: real time    0.0058
    --------------------------------------------
      LOOP:  cpu time   16.8631: real time   17.0004

 eigenvalue-minimisations  :  8544
 total energy-change (2. order) : 0.4057211E-03  (-0.3333683E-03)
 number of electron     667.9995564 magnetization 
 augmentation part      252.9694103 magnetization 

 Broyden mixing:
  rms(total) = 0.15905E-01    rms(broyden)= 0.15827E-01
  rms(prec ) = 0.23928E-01
  weight for this iteration     100.00

 eigenvalues of (default mixing * dielectric matrix)
  average eigenvalue GAMMA=   0.7196
  2.6484  2.6484  1.6898  1.2475  0.8830  0.8830  0.5368  0.5368  0.5347  0.4800
  0.3359  0.2877  0.2649  0.2649  0.2285  0.2133  0.2005  0.1606  0.1789  0.1690

 Free energy of the ion-electron system (eV)
  ---------------------------------------------------
  alpha Z        PSCENC =      4808.69657484
  Ewald energy   TEWEN  =    -65452.34749412
  -Hartree energ DENC   =    -28915.90446662
  -exchange      EXHF   =         0.00000000
  -V(xc)+E(xc)   XCENC  =      2982.05250890
  PAW double counting   =    110122.31548550  -110742.21527550
  entropy T*S    EENTRO =        -0.08707714
  eigenvalues    EBANDS =    -11672.26740171
  atomic energy  EATOM  =     98728.23761220
  Solvation  Ediel_sol  =         0.00000000
  ---------------------------------------------------
  free energy    TOTEN  =      -141.51953366 eV

  energy without entropy =     -141.43245653  energy(sigma->0) =     -141.47599510


--------------------------------------------------------------------------------------------------------




--------------------------------------- Iteration      1(  26)  ---------------------------------------


    POTLOK:  cpu time    0.0215: real time    0.0219
    SETDIJ:  cpu time    0.0079: real time    0.0079
     EDDAV:  cpu time   16.0913: real time   16.1342
       DOS:  cpu time    0.0072: real time    0.0072
    CHARGE:  cpu time    0.1314: real time    0.1314
    MIXING:  cpu time    0.0056: real time    0.0056
    --------------------------------------------
      LOOP:  cpu time   16.2649: real time   16.3082

 eigenvalue-minimisations  :  8856
 total energy-change (2. order) : 0.7371946E-04  (-0.1322851E-03)
 number of electron     667.9995563 magnetization 
 augmentation part      252.9717442 magnetization 

 Broyden mixing:
  rms(total) = 0.11996E-01    rms(broyden)= 0.11933E-01
  rms(prec ) = 0.19093E-01
  weight for this iteration     100.00

 eigenvalues of (default mixing * dielectric matrix)
  average eigenvalue GAMMA=   0.7145
  2.6535  2.6535  1.8442  1.1928  0.9484  0.9484  0.6256  0.5368  0.5368  0.5037
  0.3429  0.2836  0.2722  0.2604  0.2604  0.2180  0.2156  0.1988  0.1606  0.1787
  0.1691

 Free energy of the ion-electron system (eV)
  ---------------------------------------------------
  alpha Z        PSCENC =      4808.69657484
  Ewald energy   TEWEN  =    -65452.34749412
  -Hartree energ DENC   =    -28915.79919805
  -exchange      EXHF   =         0.00000000
  -V(xc)+E(xc)   XCENC  =      2982.05432695
  PAW double counting   =    110125.43375828  -110745.12176197
  entropy T*S    EENTRO =        -0.08699634
  eigenvalues    EBANDS =    -11672.58628173
  atomic energy  EATOM  =     98728.23761220
  Solvation  Ediel_sol  =         0.00000000
  ---------------------------------------------------
  free energy    TOTEN  =      -141.51945994 eV

  energy without entropy =     -141.43246360  energy(sigma->0) =     -141.47596177


--------------------------------------------------------------------------------------------------------




--------------------------------------- Iteration      1(  27)  ---------------------------------------


    POTLOK:  cpu time    0.0204: real time    0.0204
    SETDIJ:  cpu time    0.0076: real time    0.0076
     EDDAV:  cpu time   15.4914: real time   15.5517
       DOS:  cpu time    0.0072: real time    0.0072
[...]
-27.668  -0.016   0.013 -26.564  -0.015   0.013  -0.002  -0.001
 -0.016 -27.658   0.006  -0.015 -26.554   0.006   0.001   0.005
  0.013   0.006 -27.660   0.013   0.006 -26.556   0.002   0.001
-26.564  -0.015   0.013 -25.529  -0.014   0.012  -0.002  -0.001
 -0.015 -26.554   0.006  -0.014 -25.519   0.006   0.001   0.005
  0.013   0.006 -26.556   0.012   0.006 -25.521   0.002   0.001
 -0.002   0.001   0.002  -0.002   0.001   0.002  -5.207   0.001
 -0.001   0.005   0.001  -0.001   0.005   0.001   0.001  -5.208
 -0.001   0.004   0.001  -0.001   0.004   0.001  -0.003  -0.002
  0.001  -0.003   0.003   0.001  -0.003   0.003  -0.003   0.002
 -0.005   0.002  -0.004  -0.005   0.002  -0.004  -0.000   0.002
 -0.002   0.002   0.003  -0.002   0.002   0.003  -6.669   0.001
 -0.002   0.007   0.002  -0.002   0.007   0.002   0.001  -6.670
 -0.002   0.006   0.002  -0.002   0.006   0.002  -0.004  -0.002
  0.002  -0.004   0.004   0.002  -0.004   0.004  -0.004   0.002
 -0.007   0.003  -0.005  -0.006   0.003  -0.005  -0.001   0.003
 -0.004   0.000   0.004  -0.004   0.000   0.003  -0.005   0.004
 -0.007   0.001   0.007  -0.007   0.001   0.006  -0.009   0.008
 total augmentation occupancy for first ion, spin component:           1
 23.357  -1.410   1.005 -21.212   1.435  -0.976   0.915  -0.872   0.216   0.412  -0.544  -0.511   0.405  -0.112  -0.198   0.182
 -1.410  21.183   0.417   1.437 -19.040  -0.441   0.289  -0.758  -0.502  -0.160   0.193  -0.145   0.455   0.280  -0.018  -0.069
  1.005   0.417  23.781  -0.977  -0.441 -21.634  -1.403   0.135  -0.302  -0.298  -0.820   0.721  -0.080   0.162   0.173   0.307
-21.212   1.437  -0.977  21.045  -1.462   0.947  -0.937   0.915  -0.226  -0.425   0.554   0.527  -0.435   0.119   0.207  -0.187
  1.435 -19.040  -0.441  -1.462  18.876   0.466  -0.301   0.762   0.503   0.156  -0.215   0.153  -0.461  -0.283   0.021   0.083
 -0.976  -0.441 -21.634   0.947   0.466  21.465   1.435  -0.147   0.305   0.298   0.834  -0.745   0.088  -0.164  -0.175  -0.315
  0.915   0.289  -1.403  -0.937  -0.301   1.435   3.727   0.044  -0.100  -0.316  -0.051  -1.922  -0.015   0.032   0.157   0.030
 -0.872  -0.758   0.135   0.915   0.762  -0.147   0.044   3.542  -0.123  -0.265   0.047  -0.016  -1.819   0.060   0.149  -0.017
  0.216  -0.502  -0.302  -0.226   0.503   0.305  -0.100  -0.123   3.872   0.039  -0.002   0.032   0.060  -1.957  -0.042   0.016
  0.412  -0.160  -0.298  -0.425   0.156   0.298  -0.316  -0.265   0.039   3.990   0.373   0.157   0.148  -0.042  -2.044  -0.210
 -0.544   0.193  -0.820   0.554  -0.215   0.834  -0.051   0.047  -0.002   0.373   3.709   0.030  -0.017   0.014  -0.210  -1.905
 -0.511  -0.145   0.721   0.527   0.153  -0.745  -1.922  -0.016   0.032   0.157   0.030   1.005   0.007  -0.005  -0.079  -0.016
  0.405   0.455  -0.080  -0.435  -0.461   0.088  -0.015  -1.819   0.060   0.148  -0.017   0.007   0.949  -0.029  -0.087   0.005
 -0.112   0.280   0.162   0.119  -0.283  -0.164   0.032   0.060  -1.957  -0.042   0.014  -0.005  -0.029   1.004   0.030  -0.015
 -0.198  -0.018   0.173   0.207   0.021  -0.175   0.157   0.149  -0.042  -2.044  -0.210  -0.079  -0.087   0.030   1.061   0.117
  0.182  -0.069   0.307  -0.187   0.083  -0.315   0.030  -0.017   0.016  -0.210  -1.905  -0.016   0.005  -0.015   0.117   0.993
 -0.226  -0.420   0.134   0.276   0.442  -0.151   0.034  -0.159   0.024   0.247   0.064  -0.004   0.088  -0.001  -0.141  -0.045
  0.074   0.019  -0.083  -0.102  -0.030   0.092   0.019   0.039   0.000  -0.044  -0.006  -0.015  -0.019  -0.000   0.025   0.004


------------------------ aborting loop because EDIFF is reached ----------------------------------------


    CHARGE:  cpu time    0.1346: real time    0.1346
    FORLOC:  cpu time    0.0034: real time    0.0034
    FORNL :  cpu time    1.1879: real time    1.1882
    STRESS:  cpu time    3.5638: real time    3.5645
    FORCOR:  cpu time    0.0210: real time    0.0210
    FORHAR:  cpu time    0.0107: real time    0.0107
    MIXING:  cpu time    0.0072: real time    0.0072
    OFIELD:  cpu time    0.0000: real time    0.0000

  FORCE on cell =-STRESS in cart. coord.  units (eV):
  Direction    XX          YY          ZZ          XY          YZ          ZX
  --------------------------------------------------------------------------------------
  Alpha Z  4808.69657  4808.69657  4808.69657
  Ewald  -22175.04709-20912.10602-22365.54180   404.92985  -477.42970  -626.45935
  Hartree  9545.95699 10292.76687  9076.80559   577.53793  -228.58783  -553.28302
  E(xc)   -3757.75647 -3756.61868 -3757.72643    -0.49784    -0.24048    -0.45638
  Local     396.43823 -1583.68871  1073.19982  -991.27822   688.87135  1186.15894
  n-local -5357.42334 -5392.35723 -5367.92939    21.56583     4.20040    -3.40655
  augment  4248.68473  4253.97591  4248.55106    -2.13103     1.49647     0.32039
  Kinetic 10073.68225 10089.54242 10073.61325   -16.53746     0.72357    -0.24090
  Fock        0.00000     0.00000     0.00000     0.00000     0.00000     0.00000
  -------------------------------------------------------------------------------------
  Total   -2216.76813 -2199.78885 -2210.33133    -6.41094   -10.96622     2.63313
  in kB   -3951.48627 -3921.21996 -3940.01239   -11.42778   -19.54776     4.69367
  external pressure =    -3937.57 kB  Pullay stress =        0.00 kB


 VOLUME and BASIS-vectors are now :
 -----------------------------------------------------------------------------
  energy-cutoff  :      200.00
  volume of cell :      898.82
      direct lattice vectors                 reciprocal lattice vectors
    10.294803000  0.536294000 -0.031127000     0.097409649 -0.005250193 -0.000080434
     0.502912000  9.327173000  0.236536000    -0.005607324  0.107553460 -0.001478581
     0.014753000  0.129860000  9.390196000     0.000464144 -0.002726640  0.106531028

  length of vectors
    10.308809289  9.343715852  9.391105483     0.097551067  0.107709679  0.106566927


 FORCES acting on ions
    electron-ion (+dipol)            ewald-force                    non-local-force                 convergence-correction
 -----------------------------------------------------------------------------------------------
   -.157E+03 0.169E+03 -.945E+01   0.157E+03 -.167E+03 0.994E+01   -.601E+00 -.680E+00 -.122E+01   -.332E-02 0.431E-03 0.774E-02
   -.174E+03 -.317E+02 0.582E+02   0.173E+03 0.312E+02 -.585E+02   -.213E+00 0.553E+00 -.356E+00   0.656E-03 -.192E-02 0.901E-02
   -.744E+02 -.532E+02 -.144E+03   0.741E+02 0.543E+02 0.143E+03   0.846E+00 -.150E+01 0.558E+00   0.499E-03 -.325E-02 -.136E-02
   -.778E+02 0.677E+02 -.231E+03   0.782E+02 -.686E+02 0.232E+03   -.106E+01 0.163E+01 -.554E+00   -.424E-02 0.211E-02 -.568E-02
   0.101E+03 -.212E+02 -.284E+03   -.101E+03 0.201E+02 0.283E+03   0.638E+00 0.127E+01 0.638E+00   -.220E-02 -.497E-02 -.212E-02
   -.146E+03 0.975E+02 0.232E+03   0.146E+03 -.983E+02 -.232E+03   -.381E-02 0.223E+01 -.520E+00   -.427E-02 0.249E-02 -.379E-02
   -.308E+02 -.524E+00 -.213E+03   0.311E+02 0.138E+00 0.214E+03   -.963E+00 -.145E+00 -.217E+01   0.377E-02 0.405E-02 -.134E-02
   -.132E+02 0.165E+03 -.139E+03   0.132E+02 -.165E+03 0.140E+03   -.350E+00 0.124E+01 -.101E+01   0.489E-02 0.986E-03 -.274E-02
   0.960E+02 -.633E+02 -.454E+01   -.959E+02 0.630E+02 0.461E+01   0.916E+00 -.306E+00 -.178E+01   -.857E-03 -.201E-02 0.962E-03
   0.139E+02 -.128E+03 0.659E+02   -.139E+02 0.128E+03 -.666E+02   -.179E+00 -.645E+00 0.170E+01   -.551E-02 0.314E-02 -.845E-02
   0.172E+03 -.143E+03 0.204E+03   -.172E+03 0.144E+03 -.206E+03   -.237E+00 -.130E+01 0.101E+01   0.392E-02 -.111E-02 -.386E-02
   0.201E+03 0.165E+03 0.101E+03   -.201E+03 -.166E+03 -.101E+03   0.263E+00 0.118E+01 0.865E+00   0.434E-02 0.274E-02 -.310E-02
   0.105E+03 -.769E+02 0.237E+03   -.109E+03 0.812E+02 -.250E+03   0.281E+01 -.225E+01 0.872E+01   0.603E-02 -.286E-02 -.417E-02
   -.315E+03 -.373E+02 0.178E+03   0.316E+03 0.373E+02 -.178E+03   0.393E+00 0.662E-01 -.737E-02   -.663E-03 -.352E-02 -.291E-02
   -.780E+02 0.961E+02 0.887E+02   0.782E+02 -.956E+02 -.879E+02   -.108E+00 0.272E+00 -.108E+01   -.527E-02 0.463E-02 0.803E-02
   -.234E+02 -.217E+02 0.133E+02   0.235E+02 0.214E+02 -.135E+02   -.477E-01 0.887E+00 -.129E+00   0.284E-03 -.755E-03 0.368E-02
   0.590E+02 -.273E+02 -.323E+03   -.575E+02 0.272E+02 0.325E+03   -.143E+01 -.246E+00 -.302E+01   0.315E-02 0.295E-02 -.607E-03
   0.261E+03 0.357E+03 -.159E+03   -.262E+03 -.358E+03 0.158E+03   0.682E+00 0.118E+01 0.575E+00   -.518E-02 0.492E-02 0.405E-02
   -.171E+03 -.445E+01 -.396E+02   0.172E+03 0.104E+01 0.389E+02   -.731E+00 0.348E+01 0.658E+00   -.404E-03 -.960E-02 0.319E-02
   -.841E+02 0.450E+02 -.275E+03   0.815E+02 -.431E+02 0.276E+03   0.283E+01 -.148E+01 -.121E+01   0.275E-04 -.398E-02 0.117E-02
   0.253E+03 -.323E+03 0.255E+03   -.265E+03 0.326E+03 -.259E+03   0.976E+01 -.296E+01 0.401E+01   0.672E-02 -.224E-02 0.915E-02
   -.180E+03 0.130E+03 0.550E+03   0.189E+03 -.128E+03 -.557E+03   -.740E+01 -.180E+01 0.510E+01   -.105E-02 -.826E-03 -.101E-02
   -.363E+03 0.164E+03 0.127E+03   0.364E+03 -.167E+03 -.122E+03   -.632E+00 0.184E+01 -.395E+01   0.270E-03 0.135E-01 0.291E-02
   -.311E+03 0.137E+03 0.259E+03   0.318E+03 -.151E+03 -.263E+03   -.464E+01 0.122E+02 0.354E+01   0.644E-02 -.543E-02 -.381E-02
   -.304E+03 0.141E+03 -.484E+03   0.304E+03 -.141E+03 0.484E+03   0.101E+01 0.213E+00 0.326E+00   -.115E-01 -.457E-02 0.112E-02
   0.125E+03 -.126E+03 -.237E+03   -.126E+03 0.127E+03 0.237E+03   0.627E+00 -.148E+01 -.599E+00   -.526E-02 -.725E-03 0.329E-03
   -.289E+03 -.542E+02 -.204E+03   0.289E+03 0.544E+02 0.203E+03   0.266E+00 0.980E-01 -.256E+00   -.334E-02 0.116E-01 0.637E-02
   -.165E+03 0.139E+03 0.314E+03   0.162E+03 -.139E+03 -.316E+03   0.262E+01 -.193E+00 0.171E+01   -.172E-01 -.521E-02 0.138E-01
   0.116E+03 -.339E+02 0.169E+03   -.119E+03 0.347E+02 -.171E+03   0.288E+01 -.282E+00 0.120E+01   -.669E-03 0.287E-04 0.541E-02
   0.677E+02 -.195E+03 0.755E+01   -.680E+02 0.194E+03 -.700E+01   0.182E-02 0.616E+00 -.398E-01   0.149E-02 0.239E-02 0.943E-02
   -.360E+02 -.933E+02 -.807E+02   0.357E+02 0.949E+02 0.795E+02   0.628E+00 -.863E+00 0.307E+00   -.125E-02 0.211E-02 0.108E-01
   0.147E+02 0.151E+03 -.106E+03   -.119E+02 -.156E+03 0.109E+03   -.162E+01 0.225E+01 -.310E+01   0.730E-02 0.402E-02 0.238E-02
   0.233E+03 -.147E+03 -.273E+02   -.232E+03 0.146E+03 0.269E+02   -.557E+00 -.504E+00 0.833E+00   -.142E-02 -.102E-01 0.551E-02
   0.127E+03 -.228E+02 -.164E+03   -.127E+03 0.234E+02 0.165E+03   0.195E+00 -.113E+01 0.339E+00   0.181E-02 0.157E-02 -.292E-02
   0.474E+01 -.195E+03 -.238E+03   -.906E+01 0.200E+03 0.239E+03   0.224E+01 -.376E+01 -.123E+01   -.356E-03 -.218E-02 -.462E-02
   -.125E+03 0.656E+02 -.106E+03   0.125E+03 -.653E+02 0.105E+03   0.973E+00 -.588E-01 -.136E+00   0.305E-02 0.521E-02 -.578E-02
   -.502E+02 -.118E+03 -.267E+03   0.543E+02 0.122E+03 0.269E+03   -.333E+01 -.244E+01 -.158E+01   -.191E-02 0.593E-02 -.432E-02
   0.239E+02 0.302E+03 -.257E+03   -.254E+02 -.311E+03 0.257E+03   0.574E+00 0.620E+01 -.650E+00   0.397E-02 -.642E-02 -.443E-02
   0.467E+02 -.506E+02 0.225E+03   -.459E+02 0.496E+02 -.226E+03   -.953E+00 0.189E+00 0.898E+00   0.280E-02 0.165E-02 0.499E-03
   0.283E+03 -.120E+03 0.208E+03   -.283E+03 0.119E+03 -.208E+03   0.321E+00 0.394E+00 0.116E+01   0.485E-02 0.499E-02 0.476E-02
   0.258E+03 -.112E+02 0.322E+03   -.258E+03 0.107E+02 -.321E+03   -.113E+01 -.498E+00 -.145E+01   -.908E-02 -.989E-02 -.207E-05
   -.105E+03 0.133E+03 0.394E+03   0.106E+03 -.132E+03 -.394E+03   0.260E+00 -.852E+00 -.667E+00   -.217E-02 -.103E-02 -.664E-02
   -.168E+02 -.417E+02 -.171E+03   0.162E+02 0.421E+02 0.171E+03   0.600E+00 -.465E+00 -.229E+00   -.532E-02 0.352E-02 -.180E-02
   0.904E+02 -.184E+03 -.149E+03   -.931E+02 0.185E+03 0.146E+03   0.278E+01 -.106E+01 0.225E+01   -.124E-02 0.215E-02 -.471E-02
   0.138E+03 0.161E+03 -.188E+03   -.136E+03 -.163E+03 0.187E+03   -.189E+01 0.597E+00 0.224E+01   0.160E-02 -.246E-03 0.251E-02
   -.624E+02 -.133E+03 -.241E+03   0.625E+02 0.133E+03 0.242E+03   -.213E+00 0.458E+00 -.732E-01   0.343E-02 -.500E-02 0.359E-02
   0.117E+03 0.839E+02 0.237E+03   -.116E+03 -.828E+02 -.238E+03   -.443E+00 -.138E+01 0.140E+01   0.397E-02 0.322E-02 -.342E-02
   -.217E+03 -.670E+01 0.302E+03   0.216E+03 0.567E+01 -.302E+03   0.211E+00 0.698E+00 0.683E+00   -.103E-01 0.193E-02 -.786E-02
   -.195E+02 -.328E+03 0.253E+03   0.183E+02 0.328E+03 -.253E+03   -.118E-01 0.786E+00 0.229E+00   0.448E-02 0.551E-02 -.672E-03
   0.107E+03 0.356E+02 0.470E+02   -.105E+03 -.337E+02 -.461E+02   -.458E-01 -.208E+01 -.952E+00   -.560E-02 -.191E-02 -.126E-01
   0.129E+03 -.651E+02 -.138E+03   -.128E+03 0.675E+02 0.142E+03   -.527E+00 -.759E+00 -.494E+00   0.813E-02 -.419E-03 0.421E-02
   0.308E+03 0.186E+03 0.303E+02   -.312E+03 -.192E+03 -.280E+02   0.327E+01 0.419E+01 -.193E+01   0.108E-01 -.412E-03 0.673E-02
   0.187E+03 -.239E+03 -.730E+02   -.182E+03 0.245E+03 0.917E+02   -.582E+01 -.314E+01 -.107E+02   0.782E-02 -.251E-02 -.127E-02
   -.514E+02 0.944E+02 0.747E+02   0.515E+02 -.949E+02 -.758E+02   -.159E+01 0.628E+00 0.139E+00   -.202E-02 -.260E-02 0.249E-02
 -----------------------------------------------------------------------------------------------
   -.166E+01 -.109E+02 0.188E-01   0.689E-12 0.256E-12 0.355E-12   0.188E+01 0.111E+02 -.513E-01   -.515E-02 0.200E-02 0.238E-01
 
 
 POSITION                                       TOTAL-FORCE (eV/Angst)
 -----------------------------------------------------------------------------------
      3.57265      3.44299      0.25013        -0.576210      0.544720     -0.719086
      3.27488      6.91757      9.48133        -0.564251     -0.000021     -0.596220
      6.91865      0.42597      2.85930         0.566105     -0.401876     -0.104727
      3.34222      3.84554      3.52534        -0.694487      0.733553      0.117708
      0.61491      5.88733      3.44185         0.185441      0.188945     -0.190494
     10.05856      0.62890      6.16300        -0.556037      1.396471      0.118117
      9.02620      2.16516      1.02440        -0.645373     -0.531770     -1.148655
      8.44719      5.01106      1.93888        -0.360098      0.883586     -0.340635
      6.04509      8.32407      0.96300         1.005036     -0.670981     -1.707661
      2.31968      1.27419      4.74973        -0.161219      0.161072      0.904033
      5.37056      1.88985      4.79340        -0.620241      0.322054     -0.116266
      5.91673      5.01449      4.53114         0.434976      0.373889      0.844235
      5.28011      8.10642      5.20753        -1.301534      2.026018     -4.012435
      8.51840      7.91826      5.08317         1.580527     -0.001032     -0.123938
      1.20745      2.09678      8.12688         0.134004      0.745027     -0.308738
      9.14095      4.93323      8.07721         0.008255      0.541100     -0.344797
      6.70472      1.26390      0.28178         0.055945     -0.420174     -0.885881
      0.56969      3.58682      0.81782         0.206857      0.436185     -0.078797
      7.46283      6.60554      9.36987         0.807126      0.062463     -0.044203
      7.17360      6.97532      2.95927         0.269307      0.375853      0.566343
      3.71496      0.90193      7.06456        -2.070306     -0.134394     -0.313181
      7.24187      0.57843      6.00216         2.237520     -0.067746     -1.972591
      9.71347      3.18989      5.98024         0.672046     -1.339939      0.731277
      7.33316      6.29236      6.31985         2.798402     -2.684500     -0.827119
      2.26817      5.15182      1.68534         0.305073      0.390062     -0.076792
      2.03822      7.84808      2.19716        -0.555334     -0.701728     -0.600610
      8.57226      1.91625      7.92453        -0.437660      0.307926     -0.597170
      1.77847      4.77403      8.25939         0.137365     -0.254372     -0.214263
      2.85000      8.30556      7.28483         0.179303      0.496463     -0.501508
      1.02726      8.82654      9.37285        -0.361007      0.308146      0.518507
      3.18023      0.23914      0.02550         0.284474      0.709365     -0.884888
      6.42176      3.99377      8.96235         1.226622     -2.433929      0.072304
     10.59512      6.60195      0.37694         0.614157     -1.123176      0.487959
     10.08674      0.61120      3.19166        -0.300508     -0.569008      0.503561
      4.33909      9.01229      3.07882        -2.080281      1.140735      0.305404
      0.32732      2.97181      3.32443         0.641489      0.293655     -0.674446
      6.02703      3.18560      2.16169         0.831383      0.960730      0.187918
      4.36651      6.90756      2.99562        -0.897517     -2.889655     -0.673136
      4.10245      3.40322      6.73949        -0.154724     -0.796537     -0.189895
      7.14598      3.43514      6.53662        -0.167859     -0.621235      1.006515
      0.72475      6.81361      7.08073        -1.008516     -0.981426      0.047124
      3.24324      5.88367      6.37494         1.215293      0.622187     -0.444417
      1.70621      1.39993      1.72492         0.008609     -0.041673     -0.253590
      4.48751      1.56397      2.00588         0.129124      0.816155     -0.493138
      5.45092      5.55285      1.28694        -0.148663     -0.949705      0.859924
      9.17488      8.16538      1.79059        -0.072361      0.108649      0.408123
      8.13713      2.63667      3.95326         0.135881     -0.223112      0.192196
      1.35184      4.16199      5.80991        -0.320789     -0.334713      0.354510
      9.04250      4.96752      4.85242        -1.210486      0.988419      0.235962
      2.09951      7.80815      4.83981         1.195673     -0.115717     -0.050345
      5.79072      0.87822      7.48094         0.406342      1.634654      3.707318
      5.40175      5.69186      7.90567        -0.626709     -2.121577      0.394839
      5.86391      7.56686      7.04898        -0.862778      2.706823      7.912986
      8.95456      8.61816      8.52641        -1.517387      0.135089     -0.987243
 -----------------------------------------------------------------------------------
    total drift:                                0.208390      0.225757     -0.008676


--------------------------------------------------------------------------------------------------------



  FREE ENERGIE OF THE ION-ELECTRON SYSTEM (eV)
  ---------------------------------------------------
  free  energy   TOTEN  =      -141.51936510 eV

  energy  without entropy=     -141.43232829  energy(sigma->0) =     -141.47584670
 


--------------------------------------------------------------------------------------------------------


    POTLOK:  cpu time    0.0306: real time    0.0306


--------------------------------------------------------------------------------------------------------


     LOOP+:  cpu time  511.4603: real time  514.2402
    4ORBIT:  cpu time    0.0000: real time    0.0000

 total amount of memory used by VASP MPI-rank0    51859. kBytes
=======================================================================

   base      :      30000. kBytes
   nonlr-proj:       5029. kBytes
   fftplans  :        719. kBytes
   grid      :       1178. kBytes
   one-center:        217. kBytes
   wavefun   :      14716. kBytes
 
  
  
 General timing and accounting informations for this job:
 ========================================================
  
                  Total CPU time used (sec):      521.764
                            User time (sec):      323.198
                          System time (sec):      198.567
                         Elapsed time (sec):      525.517
  
                   Maximum memory used (kb):       79484.
                   Average memory used (kb):           0.
  
                          Minor page faults:       128372
                          Major page faults:           73
                 Voluntary context switches:         1233
