<?xml version="1.0" encoding="ISO-8859-1"?>
<modeling>
 <generator>
  <i name="program" type="string">vasp </i>
  <i name="version" type="string">5.4.4  </i>
  <i name="subversion" type="string">18Apr17 (build Dec 13 2019 08:37:50) complex                          parallel </i>
  <i name="platform" type="string">LinuxIFC </i>
  <i name="date" type="string">2022 02 15 </i>
  <i name="time" type="string">09:38:29 </i>
 </generator>
 <incar>
  <i type="int" name="ISTART">     0</i>
  <i type="string" name="PREC">normal</i>
  <i type="string" name="ALGO">Normal</i>
  <i type="logical" name="ADDGRID"> F  </i>
  <i type="int" name="ISPIN">     1</i>
  <i type="int" name="ICHARG">     2</i>
  <i type="int" name="INIWAV">     1</i>
  <i type="int" name="NELM">    60</i>
  <i type="int" name="NELMIN">     2</i>
  <i name="EDIFF">      0.00000100</i>
  <i name="EDIFFG">     -0.01000000</i>
  <i type="int" name="ISIF">     3</i>
  <i name="ENCUT">    500.00000000</i>
  <i type="string" name="LREAL">Auto</i>
  <i type="int" name="ISMEAR">     0</i>
  <i name="SIGMA">      0.05000000</i>
  <i type="int" name="NWRITE">     1</i>
  <i type="logical" name="LWAVE"> F  </i>
  <i type="logical" name="LCHARG"> F  </i>
  <v type="int" name="KPOINT_BSE">    -1     0     0     0</v>
  <i type="int" name="NELM">    60</i>
  <i type="int" name="VOSKOWN">     0</i>
 </incar>
 <structure name="primitive_cell" >
  <crystal>
   <varray name="basis" >
    <v>      10.29480300       0.53629400      -0.03112700 </v>
    <v>       0.50291200       9.32717300       0.23653600 </v>
    <v>       0.01475300       0.12986000       9.39019600 </v>
   </varray>
   <i name="volume">    898.81513016 </i>
   <varray name="rec_basis" >
    <v>       0.09740965      -0.00525019      -0.00008043 </v>
    <v>      -0.00560732       0.10755346      -0.00147858 </v>
    <v>       0.00046414      -0.00272664       0.10653103 </v>
   </varray>
  </crystal>
  <varray name="positions" >
   <v>       0.32991380       0.34990288       0.01891671 </v>
   <v>       0.14751120       0.49127924      -0.13231062 </v>
   <v>       0.19375822      -0.46111389       0.16654627 </v>
   <v>       0.42875419       0.14008162       0.21150639 </v>
   <v>      -0.39614718       0.38028362      -0.05314028 </v>
   <v>       0.38120885       0.33305952      -0.28941022 </v>
   <v>      -0.49828444      -0.43523993       0.12448854 </v>
   <v>       0.03659650       0.38137154       0.07760818 </v>
   <v>      -0.42980830       0.30563046       0.22439891 </v>
   <v>       0.15871256       0.13844993       0.18073274 </v>
   <v>       0.10595530       0.20672901      -0.13939206 </v>
   <v>       0.30852739       0.00785038       0.00354068 </v>
   <v>       0.49566374      -0.42979986      -0.17081330 </v>
   <v>       0.30509079       0.38964795       0.36662374 </v>
   <v>       0.28192409      -0.28837356      -0.00728566 </v>
   <v>       0.35656899       0.06572974      -0.24813982 </v>
   <v>      -0.35355357       0.09792462       0.02968396 </v>
   <v>       0.28452000      -0.39480271      -0.33540894 </v>
   <v>      -0.44114063       0.05092366      -0.20275462 </v>
   <v>      -0.00262519      -0.34990524       0.02707233 </v>
   <v>       0.10936407       0.43146600      -0.39178565 </v>
   <v>       0.38883293      -0.28598138       0.30231851 </v>
   <v>       0.01601376       0.31287764       0.34620370 </v>
   <v>       0.37510495      -0.05958019       0.30543055 </v>
   <v>      -0.32247362       0.31972655      -0.30969667 </v>
   <v>      -0.45493002      -0.14003857       0.08269833 </v>
   <v>      -0.30848228      -0.34525184      -0.01636522 </v>
   <v>       0.02871190      -0.37533425       0.35089659 </v>
   <v>       0.03425542      -0.28170559      -0.26392455 </v>
   <v>      -0.13613298       0.46738696      -0.14873505 </v>
   <v>       0.15716142      -0.17058915       0.21361284 </v>
   <v>       0.05297047      -0.07029337      -0.02509088 </v>
   <v>      -0.48716347       0.16605823      -0.49201440 </v>
   <v>      -0.45034453       0.49944925       0.47178093 </v>
   <v>       0.21888716       0.11701296      -0.49640364 </v>
   <v>      -0.32852292       0.00279117       0.30665418 </v>
   <v>      -0.13221133       0.18074309       0.10741601 </v>
   <v>      -0.46909277      -0.22946094      -0.26697554 </v>
   <v>       0.23342594      -0.13346017      -0.24526315 </v>
   <v>      -0.20362678       0.48872389       0.19680845 </v>
   <v>      -0.17567714       0.14631449      -0.15703782 </v>
   <v>      -0.07104274       0.27977443      -0.36710864 </v>
   <v>      -0.31922398      -0.37369894      -0.34049334 </v>
   <v>      -0.33808206      -0.29438010       0.29956489 </v>
   <v>      -0.02091983       0.00445771       0.34302558 </v>
   <v>      -0.22152574       0.23211034       0.41773197 </v>
   <v>      -0.29809161       0.01272941      -0.35879918 </v>
   <v>      -0.02399639       0.00212645      -0.34049491 </v>
   <v>      -0.14929238      -0.17587960       0.17274835 </v>
   <v>       0.16312877      -0.17913534       0.49527440 </v>
   <v>       0.47135445      -0.16543385      -0.46488860 </v>
   <v>      -0.17367268      -0.13590474      -0.11101489 </v>
   <v>      -0.14564430       0.47639538      -0.49241434 </v>
   <v>      -0.21220660      -0.20364528      -0.47612115 </v>
  </varray>
 </structure>
 <varray name="primitive_index" >
  <v type="int" >        1 </v>
  <v type="int" >       28 </v>
  <v type="int" >       25 </v>
  <v type="int" >       44 </v>
  <v type="int" >       32 </v>
  <v type="int" >       39 </v>
  <v type="int" >       45 </v>
  <v type="int" >       18 </v>
  <v type="int" >       37 </v>
  <v type="int" >       43 </v>
  <v type="int" >       15 </v>
  <v type="int" >       31 </v>
  <v type="int" >       52 </v>
  <v type="int" >        4 </v>
  <v type="int" >        2 </v>
  <v type="int" >       21 </v>
  <v type="int" >       17 </v>
  <v type="int" >       42 </v>
  <v type="int" >       51 </v>
  <v type="int" >       33 </v>
  <v type="int" >       48 </v>
  <v type="int" >       38 </v>
  <v type="int" >       36 </v>
  <v type="int" >       35 </v>
  <v type="int" >       40 </v>
  <v type="int" >        9 </v>
  <v type="int" >       19 </v>
  <v type="int" >        5 </v>
  <v type="int" >       41 </v>
  <v type="int" >       16 </v>
  <v type="int" >       26 </v>
  <v type="int" >       30 </v>
  <v type="int" >       11 </v>
  <v type="int" >       12 </v>
  <v type="int" >       10 </v>
  <v type="int" >        3 </v>
  <v type="int" >        7 </v>
  <v type="int" >       53 </v>
  <v type="int" >       29 </v>
  <v type="int" >        8 </v>
  <v type="int" >       27 </v>
  <v type="int" >       23 </v>
  <v type="int" >       24 </v>
  <v type="int" >       20 </v>
  <v type="int" >       34 </v>
  <v type="int" >       47 </v>
  <v type="int" >       22 </v>
  <v type="int" >        6 </v>
  <v type="int" >       46 </v>
  <v type="int" >       50 </v>
  <v type="int" >       13 </v>
  <v type="int" >       54 </v>
  <v type="int" >       49 </v>
  <v type="int" >       14 </v>
 </varray>
 <kpoints>
  <generation param="Gamma">
   <v type="int" name="divisions">       2        2        2 </v>
   <v name="usershift">      0.00000000       0.00000000       0.00000000 </v>
   <v name="genvec1">      0.50000000       0.00000000       0.00000000 </v>
   <v name="genvec2">     -0.00000000       0.50000000       0.00000000 </v>
   <v name="genvec3">     -0.00000000      -0.00000000       0.50000000 </v>
   <v name="shift">      0.00000000       0.00000000       0.00000000 </v>
  </generation>
  <varray name="kpointlist" >
   <v>       0.00000000       0.00000000       0.00000000 </v>
   <v>       0.50000000      -0.00000000       0.00000000 </v>
   <v>       0.00000000       0.50000000      -0.00000000 </v>
   <v>       0.50000000       0.50000000      -0.00000000 </v>
   <v>      -0.00000000       0.00000000       0.50000000 </v>
   <v>       0.50000000       0.00000000       0.50000000 </v>
   <v>      -0.00000000       0.50000000       0.50000000 </v>
   <v>       0.50000000       0.50000000       0.50000000 </v>
  </varray>
  <varray name="weights" >
   <v>       0.12500000 </v>
   <v>       0.12500000 </v>
   <v>       0.12500000 </v>
   <v>       0.12500000 </v>
   <v>       0.12500000 </v>
   <v>       0.12500000 </v>
   <v>       0.12500000 </v>
   <v>       0.12500000 </v>
  </varray>
 </kpoints>
 <parameters>
  <separator name="general" >
   <i type="string" name="SYSTEM">unknown system</i>
   <i type="logical" name="LCOMPAT"> F  </i>
  </separator>
  <separator name="electronic" >
   <i type="string" name="PREC">normal</i>
   <i name="ENMAX">    500.00000000</i>
   <i name="ENAUG">    703.44300000</i>
   <i name="EDIFF">      0.00000100</i>
   <i type="int" name="IALGO">    38</i>
   <i type="int" name="IWAVPR">    10</i>
   <i type="int" name="NBANDS">   402</i>
   <i name="NELECT">    668.00000000</i>
   <i type="int" name="TURBO">     0</i>
   <i type="int" name="IRESTART">     0</i>
   <i type="int" name="NREBOOT">     0</i>
   <i type="int" name="NMIN">     0</i>
   <i name="EREF">      0.00000000</i>
   <separator name="electronic smearing" >
    <i type="int" name="ISMEAR">     0</i>
    <i name="SIGMA">      0.05000000</i>
    <i name="KSPACING">      0.50000000</i>
    <i type="logical" name="KGAMMA"> T  </i>
    <i type="logical" name="KBLOWUP"> T  </i>
   </separator>
   <separator name="electronic projectors" >
    <i type="logical" name="LREAL"> T  </i>
    <v name="ROPT">     -0.00050000     -0.00050000     -0.00050000</v>
    <i type="int" name="LMAXPAW">  -100</i>
    <i type="int" name="LMAXMIX">     2</i>
    <i type="logical" name="NLSPLINE"> F  </i>
   </separator>
   <separator name="electronic startup" >
    <i type="int" name="ISTART">     0</i>
    <i type="int" name="ICHARG">     2</i>
    <i type="int" name="INIWAV">     1</i>
   </separator>
   <separator name="electronic spin" >
    <i type="int" name="ISPIN">     1</i>
    <i type="logical" name="LNONCOLLINEAR"> F  </i>
    <v name="MAGMOM">      1.00000000      1.00000000      1.00000000      1.00000000      1.00000000      1.00000000      1.00000000      1.00000000      1.00000000      1.00000000      1.00000000      1.00000000      1.00000000      1.00000000      1.00000000      1.00000000      1.00000000      1.00000000      1.00000000      1.00000000
      1.00000000      1.00000000      1.00000000      1.00000000      1.00000000      1.00000000      1.00000000      1.00000000      1.00000000      1.00000000      1.00000000      1.00000000      1.00000000      1.00000000      1.00000000      1.00000000      1.00000000      1.00000000      1.00000000      1.00000000
      1.00000000      1.00000000      1.00000000      1.00000000      1.00000000      1.00000000      1.00000000      1.00000000      1.00000000      1.00000000      1.00000000      1.00000000      1.00000000      1.00000000</v>
    <i name="NUPDOWN">     -1.00000000</i>
    <i type="logical" name="LSORBIT"> F  </i>
    <v name="SAXIS">      0.00000000      0.00000000      1.00000000</v>
    <i type="logical" name="LSPIRAL"> F  </i>
    <v name="QSPIRAL">      0.00000000      0.00000000      0.00000000</v>
    <i type="logical" name="LZEROZ"> F  </i>
   </separator>
   <separator name="electronic exchange-correlation" >
    <i type="logical" name="LASPH"> F  </i>
    <i type="logical" name="LMETAGGA"> F  </i>
   </separator>
   <separator name="electronic convergence" >
    <i type="int" name="NELM">    60</i>
    <i type="int" name="NELMDL">    -5</i>
    <i type="int" name="NELMIN">     2</i>
    <i name="ENINI">    500.00000000</i>
    <separator name="electronic convergence detail" >
     <i type="logical" name="LDIAG"> T  </i>
     <i type="logical" name="LSUBROT"> F  </i>
     <i name="WEIMIN">      0.00000000</i>
     <i name="EBREAK">      0.00000000</i>
     <i name="DEPER">      0.30000000</i>
     <i type="int" name="NRMM">     4</i>
     <i name="TIME">      0.40000000</i>
    </separator>
   </separator>
   <separator name="electronic mixer" >
    <i name="AMIX">      0.40000000</i>
    <i name="BMIX">      1.00000000</i>
    <i name="AMIN">      0.10000000</i>
    <i name="AMIX_MAG">      1.60000000</i>
    <i name="BMIX_MAG">      1.00000000</i>
    <separator name="electronic mixer details" >
     <i type="int" name="IMIX">     4</i>
     <i type="logical" name="MIXFIRST"> F  </i>
     <i type="int" name="MAXMIX">   -45</i>
     <i name="WC">    100.00000000</i>
     <i type="int" name="INIMIX">     1</i>
     <i type="int" name="MIXPRE">     1</i>
     <i type="int" name="MREMOVE">     5</i>
    </separator>
   </separator>
   <separator name="electronic dipolcorrection" >
    <i type="logical" name="LDIPOL"> F  </i>
    <i type="logical" name="LMONO"> F  </i>
    <i type="int" name="IDIPOL">     0</i>
    <i name="EPSILON">      1.00000000</i>
    <v name="DIPOL">   -100.00000000   -100.00000000   -100.00000000</v>
    <i name="EFIELD">      0.00000000</i>
   </separator>
  </separator>
  <separator name="grids" >
   <i type="int" name="NGX">    56</i>
   <i type="int" name="NGY">    54</i>
   <i type="int" name="NGZ">    54</i>
   <i type="int" name="NGXF">   112</i>
   <i type="int" name="NGYF">   108</i>
   <i type="int" name="NGZF">   108</i>
   <i type="logical" name="ADDGRID"> F  </i>
  </separator>
  <separator name="ionic" >
   <i type="int" name="NSW">     0</i>
   <i type="int" name="IBRION">    -1</i>
   <i type="int" name="MDALGO">     0</i>
   <i type="int" name="ISIF">     3</i>
   <i name="PSTRESS">      0.00000000</i>
   <i name="EDIFFG">     -0.01000000</i>
   <i type="int" name="NFREE">     0</i>
   <i name="POTIM">      0.50000000</i>
   <i name="SMASS">     -3.00000000</i>
   <i name="SCALEE">      1.00000000</i>
  </separator>
  <separator name="ionic md" >
   <i name="TEBEG">      0.00010000</i>
   <i name="TEEND">      0.00010000</i>
   <i type="int" name="NBLOCK">     1</i>
   <i type="int" name="KBLOCK">     1</i>
   <i type="int" name="NPACO">   256</i>
   <i name="APACO">     16.00000000</i>
  </separator>
  <separator name="symmetry" >
   <i type="int" name="ISYM">     2</i>
   <i name="SYMPREC">      0.00001000</i>
  </separator>
  <separator name="dos" >
   <i type="int" name="LORBIT">     0</i>
   <v name="RWIGS">     -1.00000000     -1.00000000     -1.00000000</v>
   <i type="int" name="NEDOS">   301</i>
   <i name="EMIN">     10.00000000</i>
   <i name="EMAX">    -10.00000000</i>
   <i name="EFERMI">      0.00000000</i>
  </separator>
  <separator name="writing" >
   <i type="int" name="NWRITE">     1</i>
   <i type="logical" name="LWAVE"> F  </i>
   <i type="logical" name="LDOWNSAMPLE"> F  </i>
   <i type="logical" name="LCHARG"> F  </i>
   <i type="logical" name="LPARD"> F  </i>
   <i type="logical" name="LVTOT"> F  </i>
   <i type="logical" name="LVHAR"> F  </i>
   <i type="logical" name="LELF"> F  </i>
   <i type="logical" name="LOPTICS"> F  </i>
   <v name="STM">      0.00000000      0.00000000      0.00000000      0.00000000      0.00000000      0.00000000      0.00000000</v>
  </separator>
  <separator name="performance" >
   <i type="int" name="NPAR">     6</i>
   <i type="int" name="NSIM">     4</i>
   <i type="int" name="NBLK">    -1</i>
   <i type="logical" name="LPLANE"> T  </i>
   <i type="logical" name="LSCALAPACK"> T  </i>
   <i type="logical" name="LSCAAWARE"> F  </i>
   <i type="logical" name="LSCALU"> F  </i>
   <i type="logical" name="LASYNC"> F  </i>
   <i type="logical" name="LORBITALREAL"> F  </i>
  </separator>
  <separator name="miscellaneous" >
   <i type="int" name="IDIOT">     3</i>
   <i type="int" name="ISPECIAL">     0</i>
   <i type="logical" name="LMUSIC"> F  </i>
   <v name="POMASS">    178.49000000     58.69000000     47.88000000</v>
   <v name="DARWINR">      0.00000000      0.00000000      0.00000000</v>
   <v name="DARWINV">      1.00000000      1.00000000      1.00000000</v>
   <i type="logical" name="LCORR"> T  </i>
  </separator>
  <i type="logical" name="GGA_COMPAT"> T  </i>
  <i type="logical" name="LBERRY"> F  </i>
  <i type="int" name="ICORELEVEL">     0</i>
  <i type="logical" name="LDAU"> F  </i>
  <i type="int" name="I_CONSTRAINED_M">     0</i>
  <separator name="electronic exchange-correlation" >
   <i type="string" name="GGA">--</i>
   <i type="int" name="VOSKOWN">     0</i>
   <i type="logical" name="LHFCALC"> F  </i>
   <i type="string" name="PRECFOCK"></i>
   <i type="logical" name="LSYMGRAD"> F  </i>
   <i type="logical" name="LHFONE"> F  </i>
   <i type="logical" name="LRHFCALC"> F  </i>
   <i type="logical" name="LTHOMAS"> F  </i>
   <i type="logical" name="LMODELHF"> F  </i>
   <i type="logical" name="LFOCKACE"> F  </i>
   <i name="ENCUT4O">     -1.00000000</i>
   <i type="int" name="EXXOEP">     0</i>
   <i type="int" name="FOURORBIT">     0</i>
   <i name="AEXX">      0.00000000</i>
   <i name="HFALPHA">      0.00000000</i>
   <i name="MCALPHA">      0.00000000</i>
   <i name="ALDAX">      1.00000000</i>
   <i name="AGGAX">      1.00000000</i>
   <i name="ALDAC">      1.00000000</i>
   <i name="AGGAC">      1.00000000</i>
   <i type="int" name="NKREDX">     1</i>
   <i type="int" name="NKREDY">     1</i>
   <i type="int" name="NKREDZ">     1</i>
   <i type="logical" name="SHIFTRED"> F  </i>
   <i type="logical" name="ODDONLY"> F  </i>
   <i type="logical" name="EVENONLY"> F  </i>
   <i type="int" name="LMAXFOCK">     0</i>
   <i type="int" name="NMAXFOCKAE">     0</i>
   <i type="logical" name="LFOCKAEDFT"> F  </i>
   <i name="HFSCREEN">      0.00000000</i>
   <i name="HFSCREENC">      0.00000000</i>
   <i type="int" name="NBANDSGWLOW">     0</i>
  </separator>
  <separator name="vdW DFT" >
   <i type="logical" name="LUSE_VDW"> F  </i>
   <i name="Zab_VDW">     -0.84910000</i>
   <i name="PARAM1">      0.12340000</i>
   <i name="PARAM2">      1.00000000</i>
   <i name="PARAM3">      0.00000000</i>
  </separator>
  <separator name="model GW" >
   <i type="int" name="MODEL_GW">     0</i>
   <i name="MODEL_EPS0">      9.98683478</i>
   <i name="MODEL_ALPHA">      1.00000000</i>
  </separator>
  <separator name="linear response parameters" >
   <i type="logical" name="LEPSILON"> F  </i>
   <i type="logical" name="LRPA"> F  </i>
   <i type="logical" name="LNABLA"> F  </i>
   <i type="logical" name="LVEL"> F  </i>
   <i type="int" name="KINTER">     0</i>
   <i name="CSHIFT">      0.10000000</i>
   <i name="OMEGAMAX">     -1.00000000</i>
   <i name="DEG_THRESHOLD">      0.00200000</i>
   <i name="RTIME">     -0.10000000</i>
   <i name="WPLASMAI">      0.00000000</i>
   <v name="DFIELD">      0.00000000      0.00000000      0.00000000</v>
   <v name="WPLASMA">      0.00000000      0.00000000      0.00000000      0.00000000      0.00000000      0.00000000      0.00000000      0.00000000      0.00000000</v>
  </separator>
  <separator name="orbital magnetization" >
   <i type="logical" name="NUCIND"> F  </i>
   <v name="MAGPOS">      0.00000000      0.00000000      0.00000000</v>
   <i type="logical" name="LNICSALL"> T  </i>
   <i type="logical" name="ORBITALMAG"> F  </i>
   <i type="logical" name="LMAGBLOCH"> F  </i>
   <i type="logical" name="LCHIMAG"> F  </i>
   <i type="logical" name="LGAUGE"> T  </i>
   <i type="int" name="MAGATOM">     0</i>
   <v name="MAGDIPOL">      0.00000000      0.00000000      0.00000000</v>
   <v name="AVECCONST">      0.00000000      0.00000000      0.00000000</v>
  </separator>
  <separator name="response functions" >
   <i type="logical" name="LADDER"> F  </i>
   <i type="logical" name="LRPAFORCE"> F  </i>
   <i type="logical" name="LFXC"> F  </i>
   <i type="logical" name="LHARTREE"> T  </i>
   <i type="int" name="IBSE">     0</i>
   <v type="int" name="KPOINT">    -1     0     0     0</v>
   <i type="logical" name="LTCTE"> F  </i>
   <i type="logical" name="LTETE"> F  </i>
   <i type="logical" name="LTRIPLET"> F  </i>
   <i type="logical" name="LFXCEPS"> F  </i>
   <i type="logical" name="LFXHEG"> F  </i>
   <i type="int" name="NATURALO">     2</i>
   <i type="logical" name="L2ORDER"> F  </i>
   <i type="logical" name="LMP2LT"> F  </i>
   <i type="logical" name="LUSEW"> F  </i>
   <i name="ENCUTGW">     -2.00000000</i>
   <i name="ENCUTGWSOFT">     -2.00000000</i>
   <i name="ENCUTLF">     -1.00000000</i>
   <i type="int" name="LMAXMP2">    -1</i>
   <i name="SCISSOR">      0.00000000</i>
   <i type="int" name="NOMEGA">     0</i>
   <i type="int" name="NOMEGAR">     0</i>
   <i type="int" name="NBANDSGW">    -1</i>
   <i type="int" name="NBANDSO">    -1</i>
   <i type="int" name="NBANDSV">    -1</i>
   <i type="int" name="NELM">    60</i>
   <i type="int" name="NELMHF">     1</i>
   <i type="int" name="DIM">     3</i>
   <i type="int" name="ANTIRES">     0</i>
   <i name="OMEGAMAX">    -30.00000000</i>
   <i name="OMEGAMIN">    -30.00000000</i>
   <i name="OMEGATL">   -200.00000000</i>
   <i type="int" name="OMEGAGRID">   140</i>
   <i name="CSHIFT">     -0.10000000</i>
   <i type="logical" name="SELFENERGY"> F  </i>
   <i type="logical" name="LSPECTRAL"> F  </i>
   <i type="logical" name="LSPECTRALGW"> F  </i>
   <i type="logical" name="LSINGLES"> F  </i>
   <i type="logical" name="LFERMIGW"> F  </i>
   <i type="logical" name="ODDONLYGW"> F  </i>
   <i type="logical" name="EVENONLYGW"> F  </i>
   <i type="int" name="NKREDLFX">     1</i>
   <i type="int" name="NKREDLFY">     1</i>
   <i type="int" name="NKREDLFZ">     1</i>
   <i type="int" name="MAXMEM">  2800</i>
   <i type="int" name="TELESCOPE">     0</i>
   <i type="int" name="TAUPAR">     1</i>
   <i type="int" name="OMEGAPAR">    -1</i>
   <i name="LAMBDA">      1.00000000</i>
  </separator>
  <separator name="External order field" >
   <i name="OFIELD_KAPPA">      0.00000000</i>
   <v name="OFIELD_K">      0.00000000      0.00000000      0.00000000</v>
   <i name="OFIELD_Q6_NEAR">      0.00000000</i>
   <i name="OFIELD_Q6_FAR">      0.00000000</i>
   <i name="OFIELD_A">      0.00000000</i>
  </separator>
 </parameters>
 <atominfo>
  <atoms>      54 </atoms>
  <types>       3 </types>
  <array name="atoms" >
   <dimension dim="1">ion</dimension>
   <field type="string">element</field>
   <field type="int">atomtype</field>
   <set>
    <rc><c>Hf</c><c>   1</c></rc>
    <rc><c>Hf</c><c>   1</c></rc>
    <rc><c>Hf</c><c>   1</c></rc>
    <rc><c>Hf</c><c>   1</c></rc>
    <rc><c>Hf</c><c>   1</c></rc>
    <rc><c>Hf</c><c>   1</c></rc>
    <rc><c>Hf</c><c>   1</c></rc>
    <rc><c>Hf</c><c>   1</c></rc>
    <rc><c>Hf</c><c>   1</c></rc>
    <rc><c>Hf</c><c>   1</c></rc>
    <rc><c>Hf</c><c>   1</c></rc>
    <rc><c>Hf</c><c>   1</c></rc>
    <rc><c>Hf</c><c>   1</c></rc>
    <rc><c>Hf</c><c>   1</c></rc>
    <rc><c>Hf</c><c>   1</c></rc>
    <rc><c>Hf</c><c>   1</c></rc>
    <rc><c>Ni</c><c>   2</c></rc>
    <rc><c>Ni</c><c>   2</c></rc>
    <rc><c>Ni</c><c>   2</c></rc>
    <rc><c>Ni</c><c>   2</c></rc>
    <rc><c>Ni</c><c>   2</c></rc>
    <rc><c>Ni</c><c>   2</c></rc>
    <rc><c>Ni</c><c>   2</c></rc>
    <rc><c>Ni</c><c>   2</c></rc>
    <rc><c>Ni</c><c>   2</c></rc>
    <rc><c>Ni</c><c>   2</c></rc>
    <rc><c>Ni</c><c>   2</c></rc>
    <rc><c>Ni</c><c>   2</c></rc>
    <rc><c>Ni</c><c>   2</c></rc>
    <rc><c>Ti</c><c>   3</c></rc>
    <rc><c>Ti</c><c>   3</c></rc>
    <rc><c>Ti</c><c>   3</c></rc>
    <rc><c>Ti</c><c>   3</c></rc>
    <rc><c>Ti</c><c>   3</c></rc>
    <rc><c>Ti</c><c>   3</c></rc>
    <rc><c>Ti</c><c>   3</c></rc>
    <rc><c>Ti</c><c>   3</c></rc>
    <rc><c>Ti</c><c>   3</c></rc>
    <rc><c>Ti</c><c>   3</c></rc>
    <rc><c>Ti</c><c>   3</c></rc>
    <rc><c>Ti</c><c>   3</c></rc>
    <rc><c>Ti</c><c>   3</c></rc>
    <rc><c>Ti</c><c>   3</c></rc>
    <rc><c>Ti</c><c>   3</c></rc>
    <rc><c>Ti</c><c>   3</c></rc>
    <rc><c>Ti</c><c>   3</c></rc>
    <rc><c>Ti</c><c>   3</c></rc>
    <rc><c>Ti</c><c>   3</c></rc>
    <rc><c>Ti</c><c>   3</c></rc>
    <rc><c>Ti</c><c>   3</c></rc>
    <rc><c>Ti</c><c>   3</c></rc>
    <rc><c>Ti</c><c>   3</c></rc>
    <rc><c>Ti</c><c>   3</c></rc>
    <rc><c>Ti</c><c>   3</c></rc>
   </set>
  </array>
  <array name="atomtypes" >
   <dimension dim="1">type</dimension>
   <field type="int">atomspertype</field>
   <field type="string">element</field>
   <field>mass</field>
   <field>valence</field>
   <field type="string">pseudopotential</field>
   <set>
    <rc><c>  16</c><c>Hf</c><c>    178.49000000</c><c>     10.00000000</c><c>  PAW_PBE Hf_pv 06Sep2000               </c></rc>
    <rc><c>  13</c><c>Ni</c><c>     58.69000000</c><c>     16.00000000</c><c>  PAW_PBE Ni_pv 06Sep2000               </c></rc>
    <rc><c>  25</c><c>Ti</c><c>     47.88000000</c><c>     12.00000000</c><c>  PAW_PBE Ti_sv 26Sep2005               </c></rc>
   </set>
  </array>
 </atominfo>
 <structure name="initialpos" >
  <crystal>
   <varray name="basis" >
    <v>      10.29480300       0.53629400      -0.03112700 </v>
    <v>       0.50291200       9.32717300       0.23653600 </v>
    <v>       0.01475300       0.12986000       9.39019600 </v>
   </varray>
   <i name="volume">    898.81513016 </i>
   <varray name="rec_basis" >
    <v>       0.09740965      -0.00525019      -0.00008043 </v>
    <v>      -0.00560732       0.10755346      -0.00147858 </v>
    <v>       0.00046414      -0.00272664       0.10653103 </v>
   </varray>
  </crystal>
  <varray name="positions" >
   <v>       0.32991380       0.34990288       0.01891671 </v>
   <v>       0.28192409       0.71162644       0.99271434 </v>
   <v>       0.67147708       0.00279117       0.30665418 </v>
   <v>       0.30509079       0.38964795       0.36662374 </v>
   <v>       0.02871190       0.62466575       0.35089659 </v>
   <v>       0.97600361       0.00212645       0.65950509 </v>
   <v>       0.86778867       0.18074309       0.10741601 </v>
   <v>       0.79637322       0.48872389       0.19680845 </v>
   <v>       0.54506998       0.85996143       0.08269833 </v>
   <v>       0.21888716       0.11701296       0.50359636 </v>
   <v>       0.51283653       0.16605823       0.50798560 </v>
   <v>       0.54965547       0.49944925       0.47178093 </v>
   <v>       0.47135445       0.83456615       0.53511140 </v>
   <v>       0.78779340       0.79635472       0.52387885 </v>
   <v>       0.10595530       0.20672901       0.86060794 </v>
   <v>       0.86386702       0.46738696       0.85126495 </v>
   <v>       0.64644643       0.09792462       0.02968396 </v>
   <v>       0.03659650       0.38137154       0.07760818 </v>
   <v>       0.69151772       0.65474816       0.98363478 </v>
   <v>       0.66191794       0.70561990       0.29956489 </v>
   <v>       0.35656899       0.06572974       0.75186018 </v>
   <v>       0.70190839       0.01272941       0.64120082 </v>
   <v>       0.92895726       0.27977443       0.63289136 </v>
   <v>       0.68077602       0.62630106       0.65950666 </v>
   <v>       0.19375822       0.53888611       0.16654627 </v>
   <v>       0.15716142       0.82941085       0.21361284 </v>
   <v>       0.82432286       0.14631449       0.84296218 </v>
   <v>       0.14751120       0.49127924       0.86768938 </v>
   <v>       0.23342594       0.86653983       0.75473685 </v>
   <v>       0.05297047       0.92970663       0.97490912 </v>
   <v>       0.30852739       0.00785038       0.00354068 </v>
   <v>       0.60385282       0.38028362       0.94685972 </v>
   <v>       0.99737481       0.65009476       0.02707233 </v>
   <v>       0.97908017       0.00445771       0.34302558 </v>
   <v>       0.37510495       0.94041981       0.30543055 </v>
   <v>       0.01601376       0.31287764       0.34620370 </v>
   <v>       0.57019170       0.30563046       0.22439891 </v>
   <v>       0.38883293       0.71401862       0.30231851 </v>
   <v>       0.38120885       0.33305952       0.71058978 </v>
   <v>       0.67752638       0.31972655       0.69030333 </v>
   <v>       0.03425542       0.71829441       0.73607545 </v>
   <v>       0.28452000       0.60519729       0.66459106 </v>
   <v>       0.15871256       0.13844993       0.18073274 </v>
   <v>       0.42875419       0.14008162       0.21150639 </v>
   <v>       0.50171556       0.56476007       0.12448854 </v>
   <v>       0.85070762       0.82412040       0.17274835 </v>
   <v>       0.77847426       0.23211034       0.41773197 </v>
   <v>       0.10936407       0.43146600       0.60821435 </v>
   <v>       0.85435570       0.47639538       0.50758566 </v>
   <v>       0.16312877       0.82086466       0.49527440 </v>
   <v>       0.55885937       0.05092366       0.79724538 </v>
   <v>       0.49566374       0.57020014       0.82918670 </v>
   <v>       0.53090723       0.77053906       0.73302446 </v>
   <v>       0.82632732       0.86409526       0.88898511 </v>
  </varray>
 </structure>
 <calculation>
  <scstep>
   <time name="dav">   21.83   21.86</time>
   <time name="total">   21.91   21.97</time>
   <energy>
    <i name="alphaZ">   4808.69657484 </i>
    <i name="ewald"> -65452.34749412 </i>
    <i name="hartreedc"> -30315.70303691 </i>
    <i name="XCdc">   3051.67690952 </i>
    <i name="pawpsdc">  80006.67163064 </i>
    <i name="pawaedc"> -81130.40725053 </i>
    <i name="eentropy">     -0.02742862 </i>
    <i name="bandstr">   -233.98342744 </i>
    <i name="atom">  98990.52378511 </i>
    <i name="e_fr_energy">   9725.10026246 </i>
    <i name="e_wo_entrp">   9725.12769109 </i>
    <i name="e_0_energy">   9725.11397678 </i>
   </energy>
  </scstep>
  <scstep>
   <time name="dav">   22.51   22.86</time>
   <time name="total">   22.51   22.87</time>
   <energy>
    <i name="e_fr_energy">    766.71001967 </i>
    <i name="e_wo_entrp">    766.75229013 </i>
    <i name="e_0_energy">    766.73115490 </i>
   </energy>
  </scstep>
  <scstep>
   <time name="dav">   25.16   25.34</time>
   <time name="total">   25.17   25.34</time>
   <energy>
    <i name="e_fr_energy">   -278.75846434 </i>
    <i name="e_wo_entrp">   -278.69001666 </i>
    <i name="e_0_energy">   -278.72424050 </i>
   </energy>
  </scstep>
  <scstep>
   <time name="dav">   30.32   30.45</time>
   <time name="total">   30.33   30.45</time>
   <energy>
    <i name="e_fr_energy">   -452.92681394 </i>
    <i name="e_wo_entrp">   -452.85384626 </i>
    <i name="e_0_energy">   -452.89033010 </i>
   </energy>
  </scstep>
  <scstep>
   <time name="dav">   28.78   28.80</time>
   <time name="total">   29.18   29.20</time>
   <energy>
    <i name="e_fr_energy">   -470.71970957 </i>
    <i name="e_wo_entrp">   -470.64477432 </i>
    <i name="e_0_energy">   -470.68224195 </i>
   </energy>
  </scstep>
  <scstep>
   <time name="dav">   27.20   27.21</time>
   <time name="total">   27.65   27.66</time>
   <energy>
    <i name="e_fr_energy">   -586.31564462 </i>
    <i name="e_wo_entrp">   -586.25134960 </i>
    <i name="e_0_energy">   -586.28349711 </i>
   </energy>
  </scstep>
  <scstep>
   <time name="dav">   27.76   27.77</time>
   <time name="total">   28.21   28.22</time>
   <energy>
    <i name="e_fr_energy">   -512.46857575 </i>
    <i name="e_wo_entrp">   -512.38471553 </i>
    <i name="e_0_energy">   -512.42664564 </i>
   </energy>
  </scstep>
  <scstep>
   <time name="dav">   28.39   28.43</time>
   <time name="total">   28.85   28.90</time>
   <energy>
    <i name="e_fr_energy">   -562.86329481 </i>
    <i name="e_wo_entrp">   -562.80154216 </i>
    <i name="e_0_energy">   -562.83241849 </i>
   </energy>
  </scstep>
  <scstep>
   <time name="dav">   27.51   27.58</time>
   <time name="total">   27.98   28.06</time>
   <energy>
    <i name="e_fr_energy">   -525.06374889 </i>
    <i name="e_wo_entrp">   -524.99043611 </i>
    <i name="e_0_energy">   -525.02709250 </i>
   </energy>
  </scstep>
  <scstep>
   <time name="dav">   27.54   27.57</time>
   <time name="total">   27.99   28.02</time>
   <energy>
    <i name="e_fr_energy">   -459.79483372 </i>
    <i name="e_wo_entrp">   -459.71665145 </i>
    <i name="e_0_energy">   -459.75574259 </i>
   </energy>
  </scstep>
  <scstep>
   <time name="dav">   28.03   28.16</time>
   <time name="total">   28.48   28.61</time>
   <energy>
    <i name="e_fr_energy">   -441.12648894 </i>
    <i name="e_wo_entrp">   -441.04561630 </i>
    <i name="e_0_energy">   -441.08605262 </i>
   </energy>
  </scstep>
  <scstep>
   <time name="dav">   29.28   29.32</time>
   <time name="total">   29.73   29.78</time>
   <energy>
    <i name="e_fr_energy">   -431.80332595 </i>
    <i name="e_wo_entrp">   -431.72319211 </i>
    <i name="e_0_energy">   -431.76325903 </i>
   </energy>
  </scstep>
  <scstep>
   <time name="dav">   28.26   28.35</time>
   <time name="total">   28.72   28.81</time>
   <energy>
    <i name="e_fr_energy">   -428.13606956 </i>
    <i name="e_wo_entrp">   -428.05603223 </i>
    <i name="e_0_energy">   -428.09605090 </i>
   </energy>
  </scstep>
  <scstep>
   <time name="dav">   27.08   27.13</time>
   <time name="total">   27.53   27.58</time>
   <energy>
    <i name="e_fr_energy">   -424.45932470 </i>
    <i name="e_wo_entrp">   -424.36993511 </i>
    <i name="e_0_energy">   -424.41462991 </i>
   </energy>
  </scstep>
  <scstep>
   <time name="dav">   30.26   30.43</time>
   <time name="total">   30.72   30.89</time>
   <energy>
    <i name="e_fr_energy">   -423.00276607 </i>
    <i name="e_wo_entrp">   -422.91443097 </i>
    <i name="e_0_energy">   -422.95859852 </i>
   </energy>
  </scstep>
  <scstep>
   <time name="dav">   29.08   29.11</time>
   <time name="total">   29.54   29.56</time>
   <energy>
    <i name="e_fr_energy">   -421.42459743 </i>
    <i name="e_wo_entrp">   -421.33493143 </i>
    <i name="e_0_energy">   -421.37976443 </i>
   </energy>
  </scstep>
  <scstep>
   <time name="dav">   29.49   29.62</time>
   <time name="total">   29.95   30.09</time>
   <energy>
    <i name="e_fr_energy">   -421.85387961 </i>
    <i name="e_wo_entrp">   -421.76340000 </i>
    <i name="e_0_energy">   -421.80863981 </i>
   </energy>
  </scstep>
  <scstep>
   <time name="dav">   29.30   29.32</time>
   <time name="total">   29.76   29.78</time>
   <energy>
    <i name="e_fr_energy">   -420.82116469 </i>
    <i name="e_wo_entrp">   -420.72972914 </i>
    <i name="e_0_energy">   -420.77544692 </i>
   </energy>
  </scstep>
  <scstep>
   <time name="dav">   29.54   29.63</time>
   <time name="total">   29.99   30.08</time>
   <energy>
    <i name="e_fr_energy">   -421.02122466 </i>
    <i name="e_wo_entrp">   -420.92988936 </i>
    <i name="e_0_energy">   -420.97555701 </i>
   </energy>
  </scstep>
  <scstep>
   <time name="dav">   28.84   28.95</time>
   <time name="total">   29.30   29.41</time>
   <energy>
    <i name="e_fr_energy">   -420.64147144 </i>
    <i name="e_wo_entrp">   -420.55187651 </i>
    <i name="e_0_energy">   -420.59667397 </i>
   </energy>
  </scstep>
  <scstep>
   <time name="dav">   30.30   30.58</time>
   <time name="total">   30.77   31.05</time>
   <energy>
    <i name="e_fr_energy">   -420.69076595 </i>
    <i name="e_wo_entrp">   -420.59839457 </i>
    <i name="e_0_energy">   -420.64458026 </i>
   </energy>
  </scstep>
  <scstep>
   <time name="dav">   29.34   29.37</time>
   <time name="total">   29.80   29.82</time>
   <energy>
    <i name="e_fr_energy">   -420.56213135 </i>
    <i name="e_wo_entrp">   -420.47147708 </i>
    <i name="e_0_energy">   -420.51680421 </i>
   </energy>
  </scstep>
  <scstep>
   <time name="dav">   28.88   29.01</time>
   <time name="total">   29.34   29.47</time>
   <energy>
    <i name="e_fr_energy">   -420.44870285 </i>
    <i name="e_wo_entrp">   -420.35822026 </i>
    <i name="e_0_energy">   -420.40346155 </i>
   </energy>
  </scstep>
  <scstep>
   <time name="dav">   27.58   27.65</time>
   <time name="total">   28.04   28.11</time>
   <energy>
    <i name="e_fr_energy">   -420.41624722 </i>
    <i name="e_wo_entrp">   -420.32554947 </i>
    <i name="e_0_energy">   -420.37089834 </i>
   </energy>
  </scstep>
  <scstep>
   <time name="dav">   29.03   29.33</time>
   <time name="total">   29.49   29.80</time>
   <energy>
    <i name="e_fr_energy">   -420.40966297 </i>
    <i name="e_wo_entrp">   -420.31901153 </i>
    <i name="e_0_energy">   -420.36433725 </i>
   </energy>
  </scstep>
  <scstep>
   <time name="dav">   29.05   29.11</time>
   <time name="total">   29.51   29.57</time>
   <energy>
    <i name="e_fr_energy">   -420.40479089 </i>
    <i name="e_wo_entrp">   -420.31370174 </i>
    <i name="e_0_energy">   -420.35924631 </i>
   </energy>
  </scstep>
  <scstep>
   <time name="dav">   29.76   29.83</time>
   <time name="total">   30.22   30.29</time>
   <energy>
    <i name="e_fr_energy">   -420.40248511 </i>
    <i name="e_wo_entrp">   -420.31148424 </i>
    <i name="e_0_energy">   -420.35698468 </i>
   </energy>
  </scstep>
  <scstep>
   <time name="dav">   28.65   28.69</time>
   <time name="total">   29.12   29.16</time>
   <energy>
    <i name="e_fr_energy">   -420.39598303 </i>
    <i name="e_wo_entrp">   -420.30498669 </i>
    <i name="e_0_energy">   -420.35048486 </i>
   </energy>
  </scstep>
  <scstep>
   <time name="dav">   28.84   28.90</time>
   <time name="total">   29.31   29.37</time>
   <energy>
    <i name="e_fr_energy">   -420.39481014 </i>
    <i name="e_wo_entrp">   -420.30370752 </i>
    <i name="e_0_energy">   -420.34925883 </i>
   </energy>
  </scstep>
  <scstep>
   <time name="dav">   28.36   28.38</time>
   <time name="total">   28.82   28.85</time>
   <energy>
    <i name="e_fr_energy">   -420.39430475 </i>
    <i name="e_wo_entrp">   -420.30322626 </i>
    <i name="e_0_energy">   -420.34876551 </i>
   </energy>
  </scstep>
  <scstep>
   <time name="dav">   28.84   28.86</time>
   <time name="total">   29.31   29.33</time>
   <energy>
    <i name="e_fr_energy">   -420.39408666 </i>
    <i name="e_wo_entrp">   -420.30299539 </i>
    <i name="e_0_energy">   -420.34854103 </i>
   </energy>
  </scstep>
  <scstep>
   <time name="dav">   29.12   29.17</time>
   <time name="total">   29.59   29.63</time>
   <energy>
    <i name="e_fr_energy">   -420.39391422 </i>
    <i name="e_wo_entrp">   -420.30278614 </i>
    <i name="e_0_energy">   -420.34835018 </i>
   </energy>
  </scstep>
  <scstep>
   <time name="dav">   28.04   28.09</time>
   <time name="total">   28.51   28.56</time>
   <energy>
    <i name="e_fr_energy">   -420.39385894 </i>
    <i name="e_wo_entrp">   -420.30274053 </i>
    <i name="e_0_energy">   -420.34829974 </i>
   </energy>
  </scstep>
  <scstep>
   <time name="dav">   28.36   28.41</time>
   <time name="total">   28.83   28.87</time>
   <energy>
    <i name="e_fr_energy">   -420.39383703 </i>
    <i name="e_wo_entrp">   -420.30270382 </i>
    <i name="e_0_energy">   -420.34827042 </i>
   </energy>
  </scstep>
  <scstep>
   <time name="dav">   28.09   28.22</time>
   <time name="total">   28.56   28.69</time>
   <energy>
    <i name="e_fr_energy">   -420.39382140 </i>
    <i name="e_wo_entrp">   -420.30271141 </i>
    <i name="e_0_energy">   -420.34826640 </i>
   </energy>
  </scstep>
  <scstep>
   <time name="dav">   28.80   28.88</time>
   <time name="total">   29.27   29.35</time>
   <energy>
    <i name="e_fr_energy">   -420.39381373 </i>
    <i name="e_wo_entrp">   -420.30268551 </i>
    <i name="e_0_energy">   -420.34824962 </i>
   </energy>
  </scstep>
  <scstep>
   <time name="dav">   28.27   28.36</time>
   <time name="total">   28.74   28.83</time>
   <energy>
    <i name="e_fr_energy">   -420.39380922 </i>
    <i name="e_wo_entrp">   -420.30269589 </i>
    <i name="e_0_energy">   -420.34825256 </i>
   </energy>
  </scstep>
  <scstep>
   <time name="dav">   27.74   27.79</time>
   <time name="total">   28.20   28.25</time>
   <energy>
    <i name="e_fr_energy">   -420.39380830 </i>
    <i name="e_wo_entrp">   -420.30269483 </i>
    <i name="e_0_energy">   -420.34825157 </i>
   </energy>
  </scstep>
  <scstep>
   <time name="dav">   25.32   26.02</time>
   <time name="total">   25.39   26.09</time>
   <energy>
    <i name="alphaZ">   4808.69657484 </i>
    <i name="ewald"> -65452.34749412 </i>
    <i name="hartreedc"> -29287.45597867 </i>
    <i name="XCdc">   3003.84590361 </i>
    <i name="pawpsdc"> 103361.39859338 </i>
    <i name="pawaedc">-104338.47780773 </i>
    <i name="eentropy">     -0.09112611 </i>
    <i name="bandstr"> -11506.48625789 </i>
    <i name="atom">  98990.52378511 </i>
    <i name="e_fr_energy">   -420.39380759 </i>
    <i name="e_wo_entrp">   -420.30268148 </i>
    <i name="e_0_energy">   -420.34824453 </i>
   </energy>
  </scstep>
  <structure>
   <crystal>
    <varray name="basis" >
     <v>      10.29480300       0.53629400      -0.03112700 </v>
     <v>       0.50291200       9.32717300       0.23653600 </v>
     <v>       0.01475300       0.12986000       9.39019600 </v>
    </varray>
    <i name="volume">    898.81513016 </i>
    <varray name="rec_basis" >
     <v>       0.09740965      -0.00525019      -0.00008043 </v>
     <v>      -0.00560732       0.10755346      -0.00147858 </v>
     <v>       0.00046414      -0.00272664       0.10653103 </v>
    </varray>
   </crystal>
   <varray name="positions" >
    <v>       0.32991380       0.34990288       0.01891671 </v>
    <v>       0.28192409       0.71162644       0.99271434 </v>
    <v>       0.67147708       0.00279117       0.30665418 </v>
    <v>       0.30509079       0.38964795       0.36662374 </v>
    <v>       0.02871190       0.62466575       0.35089659 </v>
    <v>       0.97600361       0.00212645       0.65950509 </v>
    <v>       0.86778867       0.18074309       0.10741601 </v>
    <v>       0.79637322       0.48872389       0.19680845 </v>
    <v>       0.54506998       0.85996143       0.08269833 </v>
    <v>       0.21888716       0.11701296       0.50359636 </v>
    <v>       0.51283653       0.16605823       0.50798560 </v>
    <v>       0.54965547       0.49944925       0.47178093 </v>
    <v>       0.47135445       0.83456615       0.53511140 </v>
    <v>       0.78779340       0.79635472       0.52387885 </v>
    <v>       0.10595530       0.20672901       0.86060794 </v>
    <v>       0.86386702       0.46738696       0.85126495 </v>
    <v>       0.64644643       0.09792462       0.02968396 </v>
    <v>       0.03659650       0.38137154       0.07760818 </v>
    <v>       0.69151772       0.65474816       0.98363478 </v>
    <v>       0.66191794       0.70561990       0.29956489 </v>
    <v>       0.35656899       0.06572974       0.75186018 </v>
    <v>       0.70190839       0.01272941       0.64120082 </v>
    <v>       0.92895726       0.27977443       0.63289136 </v>
    <v>       0.68077602       0.62630106       0.65950666 </v>
    <v>       0.19375822       0.53888611       0.16654627 </v>
    <v>       0.15716142       0.82941085       0.21361284 </v>
    <v>       0.82432286       0.14631449       0.84296218 </v>
    <v>       0.14751120       0.49127924       0.86768938 </v>
    <v>       0.23342594       0.86653983       0.75473685 </v>
    <v>       0.05297047       0.92970663       0.97490912 </v>
    <v>       0.30852739       0.00785038       0.00354068 </v>
    <v>       0.60385282       0.38028362       0.94685972 </v>
    <v>       0.99737481       0.65009476       0.02707233 </v>
    <v>       0.97908017       0.00445771       0.34302558 </v>
    <v>       0.37510495       0.94041981       0.30543055 </v>
    <v>       0.01601376       0.31287764       0.34620370 </v>
    <v>       0.57019170       0.30563046       0.22439891 </v>
    <v>       0.38883293       0.71401862       0.30231851 </v>
    <v>       0.38120885       0.33305952       0.71058978 </v>
    <v>       0.67752638       0.31972655       0.69030333 </v>
    <v>       0.03425542       0.71829441       0.73607545 </v>
    <v>       0.28452000       0.60519729       0.66459106 </v>
    <v>       0.15871256       0.13844993       0.18073274 </v>
    <v>       0.42875419       0.14008162       0.21150639 </v>
    <v>       0.50171556       0.56476007       0.12448854 </v>
    <v>       0.85070762       0.82412040       0.17274835 </v>
    <v>       0.77847426       0.23211034       0.41773197 </v>
    <v>       0.10936407       0.43146600       0.60821435 </v>
    <v>       0.85435570       0.47639538       0.50758566 </v>
    <v>       0.16312877       0.82086466       0.49527440 </v>
    <v>       0.55885937       0.05092366       0.79724538 </v>
    <v>       0.49566374       0.57020014       0.82918670 </v>
    <v>       0.53090723       0.77053906       0.73302446 </v>
    <v>       0.82632732       0.86409526       0.88898511 </v>
   </varray>
  </structure>
  <varray name="forces" >
   <v>      -0.18088558       0.13289217      -0.69644476 </v>
   <v>      -0.37173365       0.15589719      -0.98427177 </v>
   <v>       0.56912631      -0.34435810       0.04116346 </v>
   <v>      -0.46581202       0.46539506       0.33791295 </v>
   <v>      -0.03220237       0.33277411       0.14007222 </v>
   <v>      -0.24727185       0.76495692       0.01667103 </v>
   <v>      -0.06715474      -0.36974750      -0.55353887 </v>
   <v>      -0.07232002       0.44154321      -0.29238282 </v>
   <v>       0.60077143      -0.59722421      -1.42529964 </v>
   <v>      -0.19138778       0.08664451       0.71594682 </v>
   <v>      -0.80294318       0.44735111      -0.23020550 </v>
   <v>       0.37901965       0.27009323       0.62929264 </v>
   <v>      -1.25239290       2.05781928      -3.90637614 </v>
   <v>       1.95353581      -0.11544654      -0.39208067 </v>
   <v>       0.07764518       0.48708540      -0.38300298 </v>
   <v>       0.14700726       0.33070402      -0.41255920 </v>
   <v>      -0.25357060       0.25512269       0.21854277 </v>
   <v>       0.03190364       0.07846128       0.15223028 </v>
   <v>       0.75659988      -0.09573316      -0.47585632 </v>
   <v>      -0.54376992       0.25522883       0.15042088 </v>
   <v>      -1.48688881       0.17404133      -0.81030614 </v>
   <v>       1.66032212       0.26209344      -1.44081238 </v>
   <v>       0.77626372      -1.47667154       0.55589650 </v>
   <v>       2.48783856      -3.04687047       0.09521205 </v>
   <v>       0.48605572       0.19244686      -0.22877110 </v>
   <v>      -0.48507618       0.02275104      -0.33761193 </v>
   <v>      -0.01850921       0.08689905      -0.19534937 </v>
   <v>       0.21880117       0.06709560      -0.34237635 </v>
   <v>      -0.42681906       0.57046071      -0.35371027 </v>
   <v>       0.06782809      -0.09707088       0.45890961 </v>
   <v>      -0.01039051       0.22384005      -0.39456716 </v>
   <v>       1.45039064      -2.51832627       0.62004588 </v>
   <v>       0.33031322      -0.14417918       0.09472131 </v>
   <v>      -0.08569518      -0.46513304       0.43637586 </v>
   <v>      -2.16116791       1.28990627      -0.15081453 </v>
   <v>       0.49838346       0.24984597      -0.30793065 </v>
   <v>       1.27428616       0.78257820       0.18915343 </v>
   <v>      -0.89052190      -2.80494456      -0.49118964 </v>
   <v>      -0.27784912      -0.42026266      -0.22155673 </v>
   <v>      -0.23027555      -0.26769759       0.15843803 </v>
   <v>      -0.78452742      -0.85990274       0.04263139 </v>
   <v>       0.92416281       0.77979146      -0.34149795 </v>
   <v>      -0.15611164      -0.42117669      -0.00631598 </v>
   <v>      -0.15062674       0.48395772      -0.63218487 </v>
   <v>       0.01176538      -0.88530333       0.77537275 </v>
   <v>      -0.28871082       0.38133050       0.42825741 </v>
   <v>      -0.04589269      -0.23806629       0.30618463 </v>
   <v>      -0.20102743      -0.16077829       0.00052455 </v>
   <v>      -1.40212029       1.42430870       0.02762987 </v>
   <v>       0.96022158      -0.08396699      -0.05568742 </v>
   <v>       0.51379091       1.38347537       2.30176572 </v>
   <v>      -0.78168619      -1.91848397       0.45548213 </v>
   <v>      -0.21377709       2.43951066       7.90586292 </v>
   <v>      -1.59691435      -0.04495795      -1.19201594 </v>
  </varray>
  <varray name="stress" >
   <v>      41.88491544     -14.01000339       8.78699127 </v>
   <v>     -14.01000304      89.36706350     -15.62031555 </v>
   <v>       8.78698996     -15.62031484      68.03870619 </v>
  </varray>
  <energy>
   <i name="e_fr_energy">   -420.39380759 </i>
   <i name="e_wo_entrp">   -420.34824453 </i>
   <i name="e_0_energy">     -0.09112611 </i>
  </energy>
  <time name="totalsc"> 1125.07 1129.21</time>
  <eigenvalues>
   <array>
    <dimension dim="1">band</dimension>
    <dimension dim="2">kpoint</dimension>
    <dimension dim="3">spin</dimension>
    <field>eigene</field>
    <field>occ</field>
    <set>
     <set comment="spin 1">
      <set comment="kpoint 1">
       <r>  -57.2407    1.0000 </r>
       <r>  -57.2402    1.0000 </r>
       <r>  -57.1683    1.0000 </r>
       <r>  -57.0953    1.0000 </r>
       <r>  -57.0153    1.0000 </r>
       <r>  -56.9426    1.0000 </r>
       <r>  -56.9354    1.0000 </r>
       <r>  -56.9190    1.0000 </r>
       <r>  -56.8557    1.0000 </r>
       <r>  -56.8518    1.0000 </r>
       <r>  -56.8420    1.0000 </r>
       <r>  -56.8347    1.0000 </r>
       <r>  -56.7815    1.0000 </r>
       <r>  -56.7784    1.0000 </r>
       <r>  -56.7697    1.0000 </r>
       <r>  -56.7664    1.0000 </r>
       <r>  -56.7534    1.0000 </r>
       <r>  -56.7513    1.0000 </r>
       <r>  -56.7352    1.0000 </r>
       <r>  -56.7325    1.0000 </r>
       <r>  -56.7177    1.0000 </r>
       <r>  -56.7114    1.0000 </r>
       <r>  -56.6853    1.0000 </r>
       <r>  -56.6735    1.0000 </r>
       <r>  -56.6649    1.0000 </r>
       <r>  -56.6544    1.0000 </r>
       <r>  -56.6332    1.0000 </r>
       <r>  -56.6277    1.0000 </r>
       <r>  -56.6261    1.0000 </r>
       <r>  -56.6117    1.0000 </r>
       <r>  -56.6083    1.0000 </r>
       <r>  -56.6001    1.0000 </r>
       <r>  -56.5712    1.0000 </r>
       <r>  -56.5571    1.0000 </r>
       <r>  -56.5570    1.0000 </r>
       <r>  -56.5337    1.0000 </r>
       <r>  -56.5049    1.0000 </r>
       <r>  -56.4882    1.0000 </r>
       <r>  -56.4484    1.0000 </r>
       <r>  -49.6750    1.0000 </r>
       <r>  -49.6046    1.0000 </r>
       <r>  -49.5760    1.0000 </r>
       <r>  -49.5556    1.0000 </r>
       <r>  -49.5372    1.0000 </r>
       <r>  -49.5198    1.0000 </r>
       <r>  -49.4939    1.0000 </r>
       <r>  -49.4702    1.0000 </r>
       <r>  -49.4648    1.0000 </r>
       <r>  -49.4490    1.0000 </r>
       <r>  -49.4252    1.0000 </r>
       <r>  -49.4046    1.0000 </r>
       <r>  -49.3927    1.0000 </r>
       <r>  -49.3302    1.0000 </r>
       <r>  -49.3179    1.0000 </r>
       <r>  -49.3174    1.0000 </r>
       <r>  -49.2955    1.0000 </r>
       <r>  -49.2914    1.0000 </r>
       <r>  -49.2574    1.0000 </r>
       <r>  -49.1305    1.0000 </r>
       <r>  -49.1137    1.0000 </r>
       <r>  -49.0549    1.0000 </r>
       <r>  -48.7980    1.0000 </r>
       <r>  -48.6299    1.0000 </r>
       <r>  -48.4397    1.0000 </r>
       <r>  -27.0609    1.0000 </r>
       <r>  -26.7743    1.0000 </r>
       <r>  -26.2848    1.0000 </r>
       <r>  -26.1574    1.0000 </r>
       <r>  -26.1306    1.0000 </r>
       <r>  -26.0748    1.0000 </r>
       <r>  -26.0709    1.0000 </r>
       <r>  -26.0547    1.0000 </r>
       <r>  -26.0321    1.0000 </r>
       <r>  -26.0030    1.0000 </r>
       <r>  -25.9881    1.0000 </r>
       <r>  -25.9757    1.0000 </r>
       <r>  -25.9557    1.0000 </r>
       <r>  -25.9464    1.0000 </r>
       <r>  -25.9322    1.0000 </r>
       <r>  -25.9240    1.0000 </r>
       <r>  -25.9145    1.0000 </r>
       <r>  -25.9060    1.0000 </r>
       <r>  -25.8981    1.0000 </r>
       <r>  -25.8899    1.0000 </r>
       <r>  -25.8721    1.0000 </r>
       <r>  -25.8624    1.0000 </r>
       <r>  -25.8481    1.0000 </r>
       <r>  -25.8438    1.0000 </r>
       <r>  -25.8194    1.0000 </r>
       <r>  -25.8095    1.0000 </r>
       <r>  -25.7995    1.0000 </r>
       <r>  -25.7841    1.0000 </r>
       <r>  -25.7672    1.0000 </r>
       <r>  -25.7598    1.0000 </r>
       <r>  -25.7568    1.0000 </r>
       <r>  -25.7460    1.0000 </r>
       <r>  -25.7332    1.0000 </r>
       <r>  -25.7237    1.0000 </r>
       <r>  -25.7045    1.0000 </r>
       <r>  -25.6980    1.0000 </r>
       <r>  -25.6900    1.0000 </r>
       <r>  -25.6720    1.0000 </r>
       <r>  -25.6658    1.0000 </r>
       <r>  -25.6594    1.0000 </r>
       <r>  -25.6564    1.0000 </r>
       <r>  -25.6421    1.0000 </r>
       <r>  -25.6355    1.0000 </r>
       <r>  -25.6201    1.0000 </r>
       <r>  -25.6113    1.0000 </r>
       <r>  -25.5995    1.0000 </r>
       <r>  -25.5962    1.0000 </r>
       <r>  -25.5922    1.0000 </r>
       <r>  -25.5829    1.0000 </r>
       <r>  -25.5428    1.0000 </r>
       <r>  -25.5249    1.0000 </r>
       <r>  -25.5162    1.0000 </r>
       <r>  -25.4787    1.0000 </r>
       <r>  -25.4730    1.0000 </r>
       <r>  -25.4680    1.0000 </r>
       <r>  -25.4551    1.0000 </r>
       <r>  -25.4509    1.0000 </r>
       <r>  -25.4316    1.0000 </r>
       <r>  -25.4218    1.0000 </r>
       <r>  -25.4054    1.0000 </r>
       <r>  -25.3746    1.0000 </r>
       <r>  -25.3602    1.0000 </r>
       <r>  -25.3368    1.0000 </r>
       <r>  -25.2673    1.0000 </r>
       <r>  -25.2505    1.0000 </r>
       <r>  -25.1707    1.0000 </r>
       <r>  -25.0756    1.0000 </r>
       <r>  -25.0298    1.0000 </r>
       <r>  -24.9977    1.0000 </r>
       <r>  -24.9629    1.0000 </r>
       <r>  -24.9059    1.0000 </r>
       <r>  -24.7743    1.0000 </r>
       <r>  -24.5806    1.0000 </r>
       <r>  -24.2555    1.0000 </r>
       <r>  -23.8883    1.0000 </r>
       <r>  -23.6238    1.0000 </r>
       <r>  -23.5769    1.0000 </r>
       <r>  -23.5442    1.0000 </r>
       <r>  -23.5299    1.0000 </r>
       <r>  -23.4909    1.0000 </r>
       <r>  -23.4543    1.0000 </r>
       <r>  -23.4329    1.0000 </r>
       <r>  -23.4006    1.0000 </r>
       <r>  -23.3973    1.0000 </r>
       <r>  -23.3709    1.0000 </r>
       <r>  -23.3620    1.0000 </r>
       <r>  -23.3490    1.0000 </r>
       <r>  -23.3307    1.0000 </r>
       <r>  -23.3082    1.0000 </r>
       <r>  -23.2988    1.0000 </r>
       <r>  -23.2871    1.0000 </r>
       <r>  -23.2857    1.0000 </r>
       <r>  -23.2473    1.0000 </r>
       <r>  -23.2293    1.0000 </r>
       <r>  -23.2167    1.0000 </r>
       <r>  -23.1975    1.0000 </r>
       <r>  -23.1821    1.0000 </r>
       <r>  -23.1679    1.0000 </r>
       <r>  -23.1641    1.0000 </r>
       <r>  -23.1609    1.0000 </r>
       <r>  -23.1392    1.0000 </r>
       <r>  -23.1306    1.0000 </r>
       <r>  -23.1209    1.0000 </r>
       <r>  -23.1160    1.0000 </r>
       <r>  -23.1098    1.0000 </r>
       <r>  -23.1019    1.0000 </r>
       <r>  -23.0898    1.0000 </r>
       <r>  -23.0864    1.0000 </r>
       <r>  -23.0801    1.0000 </r>
       <r>  -23.0542    1.0000 </r>
       <r>  -23.0469    1.0000 </r>
       <r>  -23.0367    1.0000 </r>
       <r>  -23.0092    1.0000 </r>
       <r>  -22.9953    1.0000 </r>
       <r>  -22.9802    1.0000 </r>
       <r>  -22.8775    1.0000 </r>
       <r>  -22.8234    1.0000 </r>
       <r>  -22.7845    1.0000 </r>
       <r>  -22.7460    1.0000 </r>
       <r>  -22.7031    1.0000 </r>
       <r>  -22.6665    1.0000 </r>
       <r>  -22.6187    1.0000 </r>
       <r>  -21.8538    1.0000 </r>
       <r>   -0.0212    1.0000 </r>
       <r>    1.3868    1.0000 </r>
       <r>    1.6547    1.0000 </r>
       <r>    1.7280    1.0000 </r>
       <r>    2.0463    1.0000 </r>
       <r>    2.1629    1.0000 </r>
       <r>    2.2206    1.0000 </r>
       <r>    2.5928    1.0000 </r>
       <r>    2.7188    1.0000 </r>
       <r>    2.9115    1.0000 </r>
       <r>    3.0073    1.0000 </r>
       <r>    3.0904    1.0000 </r>
       <r>    3.1287    1.0000 </r>
       <r>    3.2586    1.0000 </r>
       <r>    3.2727    1.0000 </r>
       <r>    3.3267    1.0000 </r>
       <r>    3.3831    1.0000 </r>
       <r>    3.4924    1.0000 </r>
       <r>    3.5464    1.0000 </r>
       <r>    3.5889    1.0000 </r>
       <r>    3.6280    1.0000 </r>
       <r>    3.6530    1.0000 </r>
       <r>    3.7449    1.0000 </r>
       <r>    3.7610    1.0000 </r>
       <r>    3.7796    1.0000 </r>
       <r>    3.7883    1.0000 </r>
       <r>    3.8320    1.0000 </r>
       <r>    3.8620    1.0000 </r>
       <r>    3.9013    1.0000 </r>
       <r>    3.9106    1.0000 </r>
       <r>    3.9521    1.0000 </r>
       <r>    3.9703    1.0000 </r>
       <r>    4.0095    1.0000 </r>
       <r>    4.0363    1.0000 </r>
       <r>    4.0781    1.0000 </r>
       <r>    4.0810    1.0000 </r>
       <r>    4.1332    1.0000 </r>
       <r>    4.1534    1.0000 </r>
       <r>    4.1637    1.0000 </r>
       <r>    4.1880    1.0000 </r>
       <r>    4.2358    1.0000 </r>
       <r>    4.2567    1.0000 </r>
       <r>    4.2902    1.0000 </r>
       <r>    4.3010    1.0000 </r>
       <r>    4.3239    1.0000 </r>
       <r>    4.3293    1.0000 </r>
       <r>    4.3452    1.0000 </r>
       <r>    4.3981    1.0000 </r>
       <r>    4.4181    1.0000 </r>
       <r>    4.4275    1.0000 </r>
       <r>    4.4482    1.0000 </r>
       <r>    4.4560    1.0000 </r>
       <r>    4.4839    1.0000 </r>
       <r>    4.5140    1.0000 </r>
       <r>    4.5584    1.0000 </r>
       <r>    4.5912    1.0000 </r>
       <r>    4.6041    1.0000 </r>
       <r>    4.6147    1.0000 </r>
       <r>    4.6441    1.0000 </r>
       <r>    4.6620    1.0000 </r>
       <r>    4.6732    1.0000 </r>
       <r>    4.6775    1.0000 </r>
       <r>    4.6947    1.0000 </r>
       <r>    4.7241    1.0000 </r>
       <r>    4.7461    1.0000 </r>
       <r>    4.7576    1.0000 </r>
       <r>    4.7901    1.0000 </r>
       <r>    4.8075    1.0000 </r>
       <r>    4.8267    1.0000 </r>
       <r>    4.8307    1.0000 </r>
       <r>    4.8741    1.0000 </r>
       <r>    4.8931    1.0000 </r>
       <r>    4.9005    1.0000 </r>
       <r>    4.9209    1.0000 </r>
       <r>    4.9517    1.0000 </r>
       <r>    4.9864    1.0000 </r>
       <r>    5.0027    1.0000 </r>
       <r>    5.0143    1.0000 </r>
       <r>    5.0221    1.0000 </r>
       <r>    5.0444    1.0000 </r>
       <r>    5.0759    1.0000 </r>
       <r>    5.1178    1.0000 </r>
       <r>    5.1314    1.0000 </r>
       <r>    5.1456    1.0000 </r>
       <r>    5.1684    1.0000 </r>
       <r>    5.1901    1.0000 </r>
       <r>    5.2336    1.0000 </r>
       <r>    5.2749    1.0000 </r>
       <r>    5.2904    1.0000 </r>
       <r>    5.3141    1.0000 </r>
       <r>    5.3478    1.0000 </r>
       <r>    5.3616    1.0000 </r>
       <r>    5.4442    1.0000 </r>
       <r>    5.4630    1.0000 </r>
       <r>    5.4964    1.0000 </r>
       <r>    5.5101    1.0000 </r>
       <r>    5.5368    1.0000 </r>
       <r>    5.5849    1.0000 </r>
       <r>    5.6323    1.0000 </r>
       <r>    5.6427    1.0000 </r>
       <r>    5.6566    1.0000 </r>
       <r>    5.7043    1.0000 </r>
       <r>    5.7707    1.0000 </r>
       <r>    5.8066    1.0000 </r>
       <r>    5.8167    1.0000 </r>
       <r>    5.8399    1.0000 </r>
       <r>    5.8824    1.0000 </r>
       <r>    5.9064    1.0000 </r>
       <r>    5.9767    1.0000 </r>
       <r>    5.9830    1.0000 </r>
       <r>    6.0299    1.0000 </r>
       <r>    6.0594    1.0000 </r>
       <r>    6.0796    1.0000 </r>
       <r>    6.1384    1.0000 </r>
       <r>    6.1431    1.0000 </r>
       <r>    6.1748    1.0000 </r>
       <r>    6.2065    1.0000 </r>
       <r>    6.2241    1.0000 </r>
       <r>    6.2393    1.0000 </r>
       <r>    6.2761    1.0000 </r>
       <r>    6.3172    1.0000 </r>
       <r>    6.3789    1.0000 </r>
       <r>    6.4018    1.0000 </r>
       <r>    6.4661    1.0000 </r>
       <r>    6.4769    1.0000 </r>
       <r>    6.5161    1.0000 </r>
       <r>    6.5285    1.0000 </r>
       <r>    6.5499    1.0000 </r>
       <r>    6.5800    1.0000 </r>
       <r>    6.5848    1.0000 </r>
       <r>    6.6121    1.0000 </r>
       <r>    6.6765    1.0000 </r>
       <r>    6.6794    1.0000 </r>
       <r>    6.7318    1.0000 </r>
       <r>    6.7502    1.0000 </r>
       <r>    6.7802    1.0000 </r>
       <r>    6.8009    1.0000 </r>
       <r>    6.8427    1.0000 </r>
       <r>    6.8840    1.0000 </r>
       <r>    6.9022    1.0000 </r>
       <r>    6.9087    1.0000 </r>
       <r>    6.9275    1.0000 </r>
       <r>    6.9956    0.9980 </r>
       <r>    7.0141    0.9905 </r>
       <r>    7.0441    0.9330 </r>
       <r>    7.0709    0.7709 </r>
       <r>    7.1012    0.4541 </r>
       <r>    7.1156    0.3005 </r>
       <r>    7.1341    0.1478 </r>
       <r>    7.1551    0.0506 </r>
       <r>    7.1725    0.0165 </r>
       <r>    7.2231    0.0002 </r>
       <r>    7.2281    0.0001 </r>
       <r>    7.2713    0.0000 </r>
       <r>    7.3131    0.0000 </r>
       <r>    7.3502    0.0000 </r>
       <r>    7.3853    0.0000 </r>
       <r>    7.3995    0.0000 </r>
       <r>    7.4174    0.0000 </r>
       <r>    7.4537    0.0000 </r>
       <r>    7.4896    0.0000 </r>
       <r>    7.5018    0.0000 </r>
       <r>    7.5658    0.0000 </r>
       <r>    7.5785    0.0000 </r>
       <r>    7.6186    0.0000 </r>
       <r>    7.6234    0.0000 </r>
       <r>    7.6618    0.0000 </r>
       <r>    7.7125    0.0000 </r>
       <r>    7.7225    0.0000 </r>
       <r>    7.7787    0.0000 </r>
       <r>    7.8400    0.0000 </r>
       <r>    7.8420    0.0000 </r>
       <r>    7.8525    0.0000 </r>
       <r>    7.9109    0.0000 </r>
       <r>    7.9724    0.0000 </r>
       <r>    7.9869    0.0000 </r>
       <r>    8.0136    0.0000 </r>
       <r>    8.0361    0.0000 </r>
       <r>    8.0698    0.0000 </r>
       <r>    8.1017    0.0000 </r>
       <r>    8.1624    0.0000 </r>
       <r>    8.1656    0.0000 </r>
       <r>    8.2258    0.0000 </r>
       <r>    8.2833    0.0000 </r>
       <r>    8.3006    0.0000 </r>
       <r>    8.3232    0.0000 </r>
       <r>    8.4241    0.0000 </r>
       <r>    8.4391    0.0000 </r>
       <r>    8.4813    0.0000 </r>
       <r>    8.4978    0.0000 </r>
       <r>    8.5614    0.0000 </r>
       <r>    8.5708    0.0000 </r>
       <r>    8.6110    0.0000 </r>
       <r>    8.6355    0.0000 </r>
       <r>    8.7415    0.0000 </r>
       <r>    8.7507    0.0000 </r>
       <r>    8.7889    0.0000 </r>
       <r>    8.8078    0.0000 </r>
       <r>    8.8160    0.0000 </r>
       <r>    8.8818    0.0000 </r>
       <r>    8.8957    0.0000 </r>
       <r>    8.9197    0.0000 </r>
       <r>    8.9950    0.0000 </r>
       <r>    9.0127    0.0000 </r>
       <r>    9.0576    0.0000 </r>
       <r>    9.1017    0.0000 </r>
       <r>    9.1523    0.0000 </r>
       <r>    9.1695    0.0000 </r>
       <r>    9.1965    0.0000 </r>
       <r>    9.2047    0.0000 </r>
       <r>    9.2822    0.0000 </r>
       <r>    9.2961    0.0000 </r>
       <r>    9.3370    0.0000 </r>
       <r>    9.3570    0.0000 </r>
       <r>    9.4050    0.0000 </r>
      </set>
      <set comment="kpoint 2">
       <r>  -57.2407    1.0000 </r>
       <r>  -57.2402    1.0000 </r>
       <r>  -57.1684    1.0000 </r>
       <r>  -57.0954    1.0000 </r>
       <r>  -57.0153    1.0000 </r>
       <r>  -56.9426    1.0000 </r>
       <r>  -56.9354    1.0000 </r>
       <r>  -56.9190    1.0000 </r>
       <r>  -56.8557    1.0000 </r>
       <r>  -56.8518    1.0000 </r>
       <r>  -56.8420    1.0000 </r>
       <r>  -56.8347    1.0000 </r>
       <r>  -56.7815    1.0000 </r>
       <r>  -56.7785    1.0000 </r>
       <r>  -56.7697    1.0000 </r>
       <r>  -56.7663    1.0000 </r>
       <r>  -56.7535    1.0000 </r>
       <r>  -56.7513    1.0000 </r>
       <r>  -56.7352    1.0000 </r>
       <r>  -56.7325    1.0000 </r>
       <r>  -56.7177    1.0000 </r>
       <r>  -56.7114    1.0000 </r>
       <r>  -56.6853    1.0000 </r>
       <r>  -56.6736    1.0000 </r>
       <r>  -56.6649    1.0000 </r>
       <r>  -56.6544    1.0000 </r>
       <r>  -56.6332    1.0000 </r>
       <r>  -56.6277    1.0000 </r>
       <r>  -56.6261    1.0000 </r>
       <r>  -56.6118    1.0000 </r>
       <r>  -56.6083    1.0000 </r>
       <r>  -56.6001    1.0000 </r>
       <r>  -56.5712    1.0000 </r>
       <r>  -56.5571    1.0000 </r>
       <r>  -56.5570    1.0000 </r>
       <r>  -56.5337    1.0000 </r>
       <r>  -56.5049    1.0000 </r>
       <r>  -56.4882    1.0000 </r>
       <r>  -56.4484    1.0000 </r>
       <r>  -49.6749    1.0000 </r>
       <r>  -49.6046    1.0000 </r>
       <r>  -49.5760    1.0000 </r>
       <r>  -49.5556    1.0000 </r>
       <r>  -49.5372    1.0000 </r>
       <r>  -49.5199    1.0000 </r>
       <r>  -49.4943    1.0000 </r>
       <r>  -49.4697    1.0000 </r>
       <r>  -49.4648    1.0000 </r>
       <r>  -49.4490    1.0000 </r>
       <r>  -49.4252    1.0000 </r>
       <r>  -49.4046    1.0000 </r>
       <r>  -49.3929    1.0000 </r>
       <r>  -49.3303    1.0000 </r>
       <r>  -49.3179    1.0000 </r>
       <r>  -49.3172    1.0000 </r>
       <r>  -49.2956    1.0000 </r>
       <r>  -49.2913    1.0000 </r>
       <r>  -49.2574    1.0000 </r>
       <r>  -49.1305    1.0000 </r>
       <r>  -49.1137    1.0000 </r>
       <r>  -49.0549    1.0000 </r>
       <r>  -48.7980    1.0000 </r>
       <r>  -48.6299    1.0000 </r>
       <r>  -48.4397    1.0000 </r>
       <r>  -27.0610    1.0000 </r>
       <r>  -26.7743    1.0000 </r>
       <r>  -26.2846    1.0000 </r>
       <r>  -26.1566    1.0000 </r>
       <r>  -26.1311    1.0000 </r>
       <r>  -26.0763    1.0000 </r>
       <r>  -26.0724    1.0000 </r>
       <r>  -26.0549    1.0000 </r>
       <r>  -26.0313    1.0000 </r>
       <r>  -26.0005    1.0000 </r>
       <r>  -25.9827    1.0000 </r>
       <r>  -25.9752    1.0000 </r>
       <r>  -25.9553    1.0000 </r>
       <r>  -25.9447    1.0000 </r>
       <r>  -25.9353    1.0000 </r>
       <r>  -25.9309    1.0000 </r>
       <r>  -25.9130    1.0000 </r>
       <r>  -25.9042    1.0000 </r>
       <r>  -25.8993    1.0000 </r>
       <r>  -25.8891    1.0000 </r>
       <r>  -25.8763    1.0000 </r>
       <r>  -25.8662    1.0000 </r>
       <r>  -25.8454    1.0000 </r>
       <r>  -25.8416    1.0000 </r>
       <r>  -25.8238    1.0000 </r>
       <r>  -25.8021    1.0000 </r>
       <r>  -25.7992    1.0000 </r>
       <r>  -25.7837    1.0000 </r>
       <r>  -25.7692    1.0000 </r>
       <r>  -25.7626    1.0000 </r>
       <r>  -25.7522    1.0000 </r>
       <r>  -25.7443    1.0000 </r>
       <r>  -25.7408    1.0000 </r>
       <r>  -25.7263    1.0000 </r>
       <r>  -25.7049    1.0000 </r>
       <r>  -25.6968    1.0000 </r>
       <r>  -25.6874    1.0000 </r>
       <r>  -25.6718    1.0000 </r>
       <r>  -25.6591    1.0000 </r>
       <r>  -25.6575    1.0000 </r>
       <r>  -25.6536    1.0000 </r>
       <r>  -25.6483    1.0000 </r>
       <r>  -25.6400    1.0000 </r>
       <r>  -25.6125    1.0000 </r>
       <r>  -25.6083    1.0000 </r>
       <r>  -25.6045    1.0000 </r>
       <r>  -25.5968    1.0000 </r>
       <r>  -25.5946    1.0000 </r>
       <r>  -25.5871    1.0000 </r>
       <r>  -25.5371    1.0000 </r>
       <r>  -25.5249    1.0000 </r>
       <r>  -25.5165    1.0000 </r>
       <r>  -25.4796    1.0000 </r>
       <r>  -25.4693    1.0000 </r>
       <r>  -25.4686    1.0000 </r>
       <r>  -25.4577    1.0000 </r>
       <r>  -25.4511    1.0000 </r>
       <r>  -25.4332    1.0000 </r>
       <r>  -25.4227    1.0000 </r>
       <r>  -25.4051    1.0000 </r>
       <r>  -25.3728    1.0000 </r>
       <r>  -25.3610    1.0000 </r>
       <r>  -25.3362    1.0000 </r>
       <r>  -25.2672    1.0000 </r>
       <r>  -25.2506    1.0000 </r>
       <r>  -25.1707    1.0000 </r>
       <r>  -25.0756    1.0000 </r>
       <r>  -25.0297    1.0000 </r>
       <r>  -24.9978    1.0000 </r>
       <r>  -24.9629    1.0000 </r>
       <r>  -24.9059    1.0000 </r>
       <r>  -24.7743    1.0000 </r>
       <r>  -24.5805    1.0000 </r>
       <r>  -24.2555    1.0000 </r>
       <r>  -23.8883    1.0000 </r>
       <r>  -23.6239    1.0000 </r>
       <r>  -23.5770    1.0000 </r>
       <r>  -23.5416    1.0000 </r>
       <r>  -23.5325    1.0000 </r>
       <r>  -23.4903    1.0000 </r>
       <r>  -23.4548    1.0000 </r>
       <r>  -23.4330    1.0000 </r>
       <r>  -23.4009    1.0000 </r>
       <r>  -23.3970    1.0000 </r>
       <r>  -23.3664    1.0000 </r>
       <r>  -23.3608    1.0000 </r>
       <r>  -23.3540    1.0000 </r>
       <r>  -23.3306    1.0000 </r>
       <r>  -23.3089    1.0000 </r>
       <r>  -23.2991    1.0000 </r>
       <r>  -23.2875    1.0000 </r>
       <r>  -23.2857    1.0000 </r>
       <r>  -23.2486    1.0000 </r>
       <r>  -23.2295    1.0000 </r>
       <r>  -23.2171    1.0000 </r>
       <r>  -23.1963    1.0000 </r>
       <r>  -23.1790    1.0000 </r>
       <r>  -23.1676    1.0000 </r>
       <r>  -23.1630    1.0000 </r>
       <r>  -23.1608    1.0000 </r>
       <r>  -23.1403    1.0000 </r>
       <r>  -23.1312    1.0000 </r>
       <r>  -23.1204    1.0000 </r>
       <r>  -23.1145    1.0000 </r>
       <r>  -23.1116    1.0000 </r>
       <r>  -23.1054    1.0000 </r>
       <r>  -23.0904    1.0000 </r>
       <r>  -23.0850    1.0000 </r>
       <r>  -23.0796    1.0000 </r>
       <r>  -23.0529    1.0000 </r>
       <r>  -23.0465    1.0000 </r>
       <r>  -23.0367    1.0000 </r>
       <r>  -23.0090    1.0000 </r>
       <r>  -22.9964    1.0000 </r>
       <r>  -22.9802    1.0000 </r>
       <r>  -22.8770    1.0000 </r>
       <r>  -22.8239    1.0000 </r>
       <r>  -22.7848    1.0000 </r>
       <r>  -22.7460    1.0000 </r>
       <r>  -22.7029    1.0000 </r>
       <r>  -22.6667    1.0000 </r>
       <r>  -22.6187    1.0000 </r>
       <r>  -21.8538    1.0000 </r>
       <r>    0.3557    1.0000 </r>
       <r>    0.5056    1.0000 </r>
       <r>    1.8061    1.0000 </r>
       <r>    2.0187    1.0000 </r>
       <r>    2.0932    1.0000 </r>
       <r>    2.1862    1.0000 </r>
       <r>    2.3964    1.0000 </r>
       <r>    2.4858    1.0000 </r>
       <r>    2.5653    1.0000 </r>
       <r>    2.8296    1.0000 </r>
       <r>    3.1404    1.0000 </r>
       <r>    3.1505    1.0000 </r>
       <r>    3.2025    1.0000 </r>
       <r>    3.2505    1.0000 </r>
       <r>    3.3196    1.0000 </r>
       <r>    3.4288    1.0000 </r>
       <r>    3.4588    1.0000 </r>
       <r>    3.5006    1.0000 </r>
       <r>    3.5297    1.0000 </r>
       <r>    3.6176    1.0000 </r>
       <r>    3.6373    1.0000 </r>
       <r>    3.6733    1.0000 </r>
       <r>    3.7083    1.0000 </r>
       <r>    3.7293    1.0000 </r>
       <r>    3.7462    1.0000 </r>
       <r>    3.7695    1.0000 </r>
       <r>    3.7935    1.0000 </r>
       <r>    3.8236    1.0000 </r>
       <r>    3.8829    1.0000 </r>
       <r>    3.9386    1.0000 </r>
       <r>    3.9433    1.0000 </r>
       <r>    3.9690    1.0000 </r>
       <r>    3.9874    1.0000 </r>
       <r>    4.0060    1.0000 </r>
       <r>    4.0405    1.0000 </r>
       <r>    4.0765    1.0000 </r>
       <r>    4.0992    1.0000 </r>
       <r>    4.1376    1.0000 </r>
       <r>    4.1716    1.0000 </r>
       <r>    4.1790    1.0000 </r>
       <r>    4.1821    1.0000 </r>
       <r>    4.2223    1.0000 </r>
       <r>    4.2365    1.0000 </r>
       <r>    4.2602    1.0000 </r>
       <r>    4.3102    1.0000 </r>
       <r>    4.3367    1.0000 </r>
       <r>    4.3466    1.0000 </r>
       <r>    4.3713    1.0000 </r>
       <r>    4.3871    1.0000 </r>
       <r>    4.4041    1.0000 </r>
       <r>    4.4594    1.0000 </r>
       <r>    4.4730    1.0000 </r>
       <r>    4.4959    1.0000 </r>
       <r>    4.5060    1.0000 </r>
       <r>    4.5454    1.0000 </r>
       <r>    4.5656    1.0000 </r>
       <r>    4.5930    1.0000 </r>
       <r>    4.6176    1.0000 </r>
       <r>    4.6350    1.0000 </r>
       <r>    4.6502    1.0000 </r>
       <r>    4.6633    1.0000 </r>
       <r>    4.6883    1.0000 </r>
       <r>    4.7014    1.0000 </r>
       <r>    4.7239    1.0000 </r>
       <r>    4.7403    1.0000 </r>
       <r>    4.7548    1.0000 </r>
       <r>    4.7858    1.0000 </r>
       <r>    4.7963    1.0000 </r>
       <r>    4.8228    1.0000 </r>
       <r>    4.8530    1.0000 </r>
       <r>    4.8685    1.0000 </r>
       <r>    4.9099    1.0000 </r>
       <r>    4.9400    1.0000 </r>
       <r>    4.9536    1.0000 </r>
       <r>    4.9669    1.0000 </r>
       <r>    4.9739    1.0000 </r>
       <r>    4.9974    1.0000 </r>
       <r>    5.0246    1.0000 </r>
       <r>    5.0299    1.0000 </r>
       <r>    5.0645    1.0000 </r>
       <r>    5.0967    1.0000 </r>
       <r>    5.1098    1.0000 </r>
       <r>    5.1132    1.0000 </r>
       <r>    5.1584    1.0000 </r>
       <r>    5.1849    1.0000 </r>
       <r>    5.2588    1.0000 </r>
       <r>    5.2740    1.0000 </r>
       <r>    5.2879    1.0000 </r>
       <r>    5.3056    1.0000 </r>
       <r>    5.3400    1.0000 </r>
       <r>    5.3631    1.0000 </r>
       <r>    5.3991    1.0000 </r>
       <r>    5.4092    1.0000 </r>
       <r>    5.4426    1.0000 </r>
       <r>    5.5098    1.0000 </r>
       <r>    5.5243    1.0000 </r>
       <r>    5.5582    1.0000 </r>
       <r>    5.6084    1.0000 </r>
       <r>    5.6318    1.0000 </r>
       <r>    5.6335    1.0000 </r>
       <r>    5.6875    1.0000 </r>
       <r>    5.7278    1.0000 </r>
       <r>    5.7613    1.0000 </r>
       <r>    5.8047    1.0000 </r>
       <r>    5.8152    1.0000 </r>
       <r>    5.8557    1.0000 </r>
       <r>    5.8631    1.0000 </r>
       <r>    5.9528    1.0000 </r>
       <r>    5.9601    1.0000 </r>
       <r>    5.9689    1.0000 </r>
       <r>    5.9932    1.0000 </r>
       <r>    6.0588    1.0000 </r>
       <r>    6.0650    1.0000 </r>
       <r>    6.1049    1.0000 </r>
       <r>    6.1778    1.0000 </r>
       <r>    6.1956    1.0000 </r>
       <r>    6.2199    1.0000 </r>
       <r>    6.2444    1.0000 </r>
       <r>    6.3022    1.0000 </r>
       <r>    6.3419    1.0000 </r>
       <r>    6.3519    1.0000 </r>
       <r>    6.3619    1.0000 </r>
       <r>    6.4266    1.0000 </r>
       <r>    6.4377    1.0000 </r>
       <r>    6.4725    1.0000 </r>
       <r>    6.4892    1.0000 </r>
       <r>    6.5155    1.0000 </r>
       <r>    6.5512    1.0000 </r>
       <r>    6.5583    1.0000 </r>
       <r>    6.5836    1.0000 </r>
       <r>    6.6329    1.0000 </r>
       <r>    6.6640    1.0000 </r>
       <r>    6.7034    1.0000 </r>
       <r>    6.7119    1.0000 </r>
       <r>    6.7414    1.0000 </r>
       <r>    6.7760    1.0000 </r>
       <r>    6.8095    1.0000 </r>
       <r>    6.8222    1.0000 </r>
       <r>    6.8404    1.0000 </r>
       <r>    6.8852    1.0000 </r>
       <r>    6.9057    1.0000 </r>
       <r>    6.9413    1.0000 </r>
       <r>    6.9455    1.0000 </r>
       <r>    6.9996    0.9971 </r>
       <r>    7.0210    0.9844 </r>
       <r>    7.0427    0.9381 </r>
       <r>    7.0964    0.5082 </r>
       <r>    7.1057    0.4037 </r>
       <r>    7.1418    0.1029 </r>
       <r>    7.1579    0.0427 </r>
       <r>    7.1775    0.0115 </r>
       <r>    7.1994    0.0019 </r>
       <r>    7.2275    0.0001 </r>
       <r>    7.2949    0.0000 </r>
       <r>    7.3048    0.0000 </r>
       <r>    7.3239    0.0000 </r>
       <r>    7.3946    0.0000 </r>
       <r>    7.4194    0.0000 </r>
       <r>    7.4458    0.0000 </r>
       <r>    7.4508    0.0000 </r>
       <r>    7.4790    0.0000 </r>
       <r>    7.5202    0.0000 </r>
       <r>    7.5441    0.0000 </r>
       <r>    7.5654    0.0000 </r>
       <r>    7.6245    0.0000 </r>
       <r>    7.6384    0.0000 </r>
       <r>    7.6752    0.0000 </r>
       <r>    7.7141    0.0000 </r>
       <r>    7.7458    0.0000 </r>
       <r>    7.7697    0.0000 </r>
       <r>    7.7968    0.0000 </r>
       <r>    7.8216    0.0000 </r>
       <r>    7.8487    0.0000 </r>
       <r>    7.8946    0.0000 </r>
       <r>    7.9628    0.0000 </r>
       <r>    7.9918    0.0000 </r>
       <r>    8.0388    0.0000 </r>
       <r>    8.0577    0.0000 </r>
       <r>    8.0711    0.0000 </r>
       <r>    8.1444    0.0000 </r>
       <r>    8.1648    0.0000 </r>
       <r>    8.2031    0.0000 </r>
       <r>    8.2452    0.0000 </r>
       <r>    8.2834    0.0000 </r>
       <r>    8.3119    0.0000 </r>
       <r>    8.3791    0.0000 </r>
       <r>    8.3910    0.0000 </r>
       <r>    8.4294    0.0000 </r>
       <r>    8.4760    0.0000 </r>
       <r>    8.4968    0.0000 </r>
       <r>    8.5178    0.0000 </r>
       <r>    8.5601    0.0000 </r>
       <r>    8.6317    0.0000 </r>
       <r>    8.6547    0.0000 </r>
       <r>    8.7064    0.0000 </r>
       <r>    8.7179    0.0000 </r>
       <r>    8.7799    0.0000 </r>
       <r>    8.7946    0.0000 </r>
       <r>    8.8287    0.0000 </r>
       <r>    8.8709    0.0000 </r>
       <r>    8.8989    0.0000 </r>
       <r>    8.9081    0.0000 </r>
       <r>    8.9677    0.0000 </r>
       <r>    8.9964    0.0000 </r>
       <r>    9.0722    0.0000 </r>
       <r>    9.0815    0.0000 </r>
       <r>    9.1275    0.0000 </r>
       <r>    9.1668    0.0000 </r>
       <r>    9.1961    0.0000 </r>
       <r>    9.2308    0.0000 </r>
       <r>    9.2723    0.0000 </r>
       <r>    9.3118    0.0000 </r>
       <r>    9.3231    0.0000 </r>
       <r>    9.3613    0.0000 </r>
       <r>    9.4130    0.0000 </r>
      </set>
      <set comment="kpoint 3">
       <r>  -57.2407    1.0000 </r>
       <r>  -57.2403    1.0000 </r>
       <r>  -57.1684    1.0000 </r>
       <r>  -57.0954    1.0000 </r>
       <r>  -57.0153    1.0000 </r>
       <r>  -56.9427    1.0000 </r>
       <r>  -56.9354    1.0000 </r>
       <r>  -56.9191    1.0000 </r>
       <r>  -56.8557    1.0000 </r>
       <r>  -56.8518    1.0000 </r>
       <r>  -56.8421    1.0000 </r>
       <r>  -56.8347    1.0000 </r>
       <r>  -56.7815    1.0000 </r>
       <r>  -56.7785    1.0000 </r>
       <r>  -56.7697    1.0000 </r>
       <r>  -56.7664    1.0000 </r>
       <r>  -56.7535    1.0000 </r>
       <r>  -56.7513    1.0000 </r>
       <r>  -56.7352    1.0000 </r>
       <r>  -56.7325    1.0000 </r>
       <r>  -56.7177    1.0000 </r>
       <r>  -56.7115    1.0000 </r>
       <r>  -56.6853    1.0000 </r>
       <r>  -56.6736    1.0000 </r>
       <r>  -56.6650    1.0000 </r>
       <r>  -56.6544    1.0000 </r>
       <r>  -56.6332    1.0000 </r>
       <r>  -56.6278    1.0000 </r>
       <r>  -56.6261    1.0000 </r>
       <r>  -56.6118    1.0000 </r>
       <r>  -56.6084    1.0000 </r>
       <r>  -56.6001    1.0000 </r>
       <r>  -56.5712    1.0000 </r>
       <r>  -56.5571    1.0000 </r>
       <r>  -56.5570    1.0000 </r>
       <r>  -56.5337    1.0000 </r>
       <r>  -56.5049    1.0000 </r>
       <r>  -56.4882    1.0000 </r>
       <r>  -56.4484    1.0000 </r>
       <r>  -49.6750    1.0000 </r>
       <r>  -49.6045    1.0000 </r>
       <r>  -49.5757    1.0000 </r>
       <r>  -49.5567    1.0000 </r>
       <r>  -49.5364    1.0000 </r>
       <r>  -49.5199    1.0000 </r>
       <r>  -49.4940    1.0000 </r>
       <r>  -49.4703    1.0000 </r>
       <r>  -49.4647    1.0000 </r>
       <r>  -49.4491    1.0000 </r>
       <r>  -49.4253    1.0000 </r>
       <r>  -49.4046    1.0000 </r>
       <r>  -49.3926    1.0000 </r>
       <r>  -49.3300    1.0000 </r>
       <r>  -49.3179    1.0000 </r>
       <r>  -49.3173    1.0000 </r>
       <r>  -49.2914    1.0000 </r>
       <r>  -49.2886    1.0000 </r>
       <r>  -49.2595    1.0000 </r>
       <r>  -49.1680    1.0000 </r>
[...]
       <r>    8.8036    0.0000 </r>
       <r>    8.8307    0.0000 </r>
       <r>    8.8823    0.0000 </r>
       <r>    8.9185    0.0000 </r>
       <r>    8.9653    0.0000 </r>
       <r>    9.0214    0.0000 </r>
       <r>    9.0366    0.0000 </r>
       <r>    9.0646    0.0000 </r>
       <r>    9.0856    0.0000 </r>
       <r>    9.1137    0.0000 </r>
       <r>    9.1174    0.0000 </r>
       <r>    9.2016    0.0000 </r>
       <r>    9.2436    0.0000 </r>
       <r>    9.2548    0.0000 </r>
       <r>    9.2734    0.0000 </r>
       <r>    9.3312    0.0000 </r>
       <r>    9.3419    0.0000 </r>
       <r>    9.3949    0.0000 </r>
      </set>
     </set>
    </set>
   </array>
  </eigenvalues>
  <separator name="orbital magnetization" >
   <v name="MAGDIPOLOUT">      0.00000000      0.00000000      0.00000000</v>
  </separator>
  <dos>
   <i name="efermi">      7.09712343 </i>
   <total>
    <array>
     <dimension dim="1">gridpoints</dimension>
     <dimension dim="2">spin</dimension>
     <field>energy</field>
     <field>total</field>
     <field>integrated</field>
     <set>
      <set comment="spin 1">
       <r>   -60.5751     0.0000     0.0000 </r>
       <r>   -60.3306     0.0000     0.0000 </r>
       <r>   -60.0861     0.0000     0.0000 </r>
       <r>   -59.8416     0.0000     0.0000 </r>
       <r>   -59.5971     0.0000     0.0000 </r>
       <r>   -59.3525     0.0000     0.0000 </r>
       <r>   -59.1080     0.0000     0.0000 </r>
       <r>   -58.8635     0.0000     0.0000 </r>
       <r>   -58.6190     0.0000     0.0000 </r>
       <r>   -58.3744     0.0000     0.0000 </r>
       <r>   -58.1299     0.0000     0.0000 </r>
       <r>   -57.8854     0.0000     0.0000 </r>
       <r>   -57.6409     0.0000     0.0000 </r>
       <r>   -57.3964     0.0001     0.0000 </r>
       <r>   -57.1518    22.2695     5.4454 </r>
       <r>   -56.9073    38.5783    14.8786 </r>
       <r>   -56.6628   141.8079    49.5537 </r>
       <r>   -56.4183   114.4627    77.5423 </r>
       <r>   -56.1738     1.8718    78.0000 </r>
       <r>   -55.9292     0.0000    78.0000 </r>
       <r>   -55.6847     0.0000    78.0000 </r>
       <r>   -55.4402     0.0000    78.0000 </r>
       <r>   -55.1957     0.0000    78.0000 </r>
       <r>   -54.9511     0.0000    78.0000 </r>
       <r>   -54.7066     0.0000    78.0000 </r>
       <r>   -54.4621     0.0000    78.0000 </r>
       <r>   -54.2176     0.0000    78.0000 </r>
       <r>   -53.9731     0.0000    78.0000 </r>
       <r>   -53.7285     0.0000    78.0000 </r>
       <r>   -53.4840     0.0000    78.0000 </r>
       <r>   -53.2395     0.0000    78.0000 </r>
       <r>   -52.9950     0.0000    78.0000 </r>
       <r>   -52.7505     0.0000    78.0000 </r>
       <r>   -52.5059     0.0000    78.0000 </r>
       <r>   -52.2614     0.0000    78.0000 </r>
       <r>   -52.0169     0.0000    78.0000 </r>
       <r>   -51.7724     0.0000    78.0000 </r>
       <r>   -51.5278     0.0000    78.0000 </r>
       <r>   -51.2833     0.0000    78.0000 </r>
       <r>   -51.0388     0.0000    78.0000 </r>
       <r>   -50.7943     0.0000    78.0000 </r>
       <r>   -50.5498     0.0000    78.0000 </r>
       <r>   -50.3052     0.0000    78.0000 </r>
       <r>   -50.0607     0.0000    78.0000 </r>
       <r>   -49.8162     0.0003    78.0001 </r>
       <r>   -49.5717    24.1362    83.9019 </r>
       <r>   -49.3271    95.4365   107.2382 </r>
       <r>   -49.0826    50.4931   119.5848 </r>
       <r>   -48.8381    11.0459   122.2858 </r>
       <r>   -48.5936    13.9465   125.6960 </r>
       <r>   -48.3491     9.3787   127.9893 </r>
       <r>   -48.1045     0.0438   128.0000 </r>
       <r>   -47.8600     0.0000   128.0000 </r>
       <r>   -47.6155     0.0000   128.0000 </r>
       <r>   -47.3710     0.0000   128.0000 </r>
       <r>   -47.1265     0.0000   128.0000 </r>
       <r>   -46.8819     0.0000   128.0000 </r>
       <r>   -46.6374     0.0000   128.0000 </r>
       <r>   -46.3929     0.0000   128.0000 </r>
       <r>   -46.1484     0.0000   128.0000 </r>
       <r>   -45.9038     0.0000   128.0000 </r>
       <r>   -45.6593     0.0000   128.0000 </r>
       <r>   -45.4148     0.0000   128.0000 </r>
       <r>   -45.1703     0.0000   128.0000 </r>
       <r>   -44.9258     0.0000   128.0000 </r>
       <r>   -44.6812     0.0000   128.0000 </r>
       <r>   -44.4367     0.0000   128.0000 </r>
       <r>   -44.1922     0.0000   128.0000 </r>
       <r>   -43.9477     0.0000   128.0000 </r>
       <r>   -43.7032     0.0000   128.0000 </r>
       <r>   -43.4586     0.0000   128.0000 </r>
       <r>   -43.2141     0.0000   128.0000 </r>
       <r>   -42.9696     0.0000   128.0000 </r>
       <r>   -42.7251     0.0000   128.0000 </r>
       <r>   -42.4805     0.0000   128.0000 </r>
       <r>   -42.2360     0.0000   128.0000 </r>
       <r>   -41.9915     0.0000   128.0000 </r>
       <r>   -41.7470     0.0000   128.0000 </r>
       <r>   -41.5025     0.0000   128.0000 </r>
       <r>   -41.2579     0.0000   128.0000 </r>
       <r>   -41.0134     0.0000   128.0000 </r>
       <r>   -40.7689     0.0000   128.0000 </r>
       <r>   -40.5244     0.0000   128.0000 </r>
       <r>   -40.2799     0.0000   128.0000 </r>
       <r>   -40.0353     0.0000   128.0000 </r>
       <r>   -39.7908     0.0000   128.0000 </r>
       <r>   -39.5463     0.0000   128.0000 </r>
       <r>   -39.3018     0.0000   128.0000 </r>
       <r>   -39.0572     0.0000   128.0000 </r>
       <r>   -38.8127     0.0000   128.0000 </r>
       <r>   -38.5682     0.0000   128.0000 </r>
       <r>   -38.3237     0.0000   128.0000 </r>
       <r>   -38.0792     0.0000   128.0000 </r>
       <r>   -37.8346     0.0000   128.0000 </r>
       <r>   -37.5901     0.0000   128.0000 </r>
       <r>   -37.3456     0.0000   128.0000 </r>
       <r>   -37.1011     0.0000   128.0000 </r>
       <r>   -36.8565     0.0000   128.0000 </r>
       <r>   -36.6120     0.0000   128.0000 </r>
       <r>   -36.3675     0.0000   128.0000 </r>
       <r>   -36.1230     0.0000   128.0000 </r>
       <r>   -35.8785     0.0000   128.0000 </r>
       <r>   -35.6339     0.0000   128.0000 </r>
       <r>   -35.3894     0.0000   128.0000 </r>
       <r>   -35.1449     0.0000   128.0000 </r>
       <r>   -34.9004     0.0000   128.0000 </r>
       <r>   -34.6559     0.0000   128.0000 </r>
       <r>   -34.4113     0.0000   128.0000 </r>
       <r>   -34.1668     0.0000   128.0000 </r>
       <r>   -33.9223     0.0000   128.0000 </r>
       <r>   -33.6778     0.0000   128.0000 </r>
       <r>   -33.4332     0.0000   128.0000 </r>
       <r>   -33.1887     0.0000   128.0000 </r>
       <r>   -32.9442     0.0000   128.0000 </r>
       <r>   -32.6997     0.0000   128.0000 </r>
       <r>   -32.4552     0.0000   128.0000 </r>
       <r>   -32.2106     0.0000   128.0000 </r>
       <r>   -31.9661     0.0000   128.0000 </r>
       <r>   -31.7216     0.0000   128.0000 </r>
       <r>   -31.4771     0.0000   128.0000 </r>
       <r>   -31.2326     0.0000   128.0000 </r>
       <r>   -30.9880     0.0000   128.0000 </r>
       <r>   -30.7435     0.0000   128.0000 </r>
       <r>   -30.4990     0.0000   128.0000 </r>
       <r>   -30.2545     0.0000   128.0000 </r>
       <r>   -30.0099     0.0000   128.0000 </r>
       <r>   -29.7654     0.0000   128.0000 </r>
       <r>   -29.5209     0.0000   128.0000 </r>
       <r>   -29.2764     0.0000   128.0000 </r>
       <r>   -29.0319     0.0000   128.0000 </r>
       <r>   -28.7873     0.0000   128.0000 </r>
       <r>   -28.5428     0.0000   128.0000 </r>
       <r>   -28.2983     0.0000   128.0000 </r>
       <r>   -28.0538     0.0000   128.0000 </r>
       <r>   -27.8092     0.0000   128.0000 </r>
       <r>   -27.5647     0.0000   128.0000 </r>
       <r>   -27.3202     0.0000   128.0000 </r>
       <r>   -27.0757     2.9063   128.7107 </r>
       <r>   -26.8312     5.6755   130.0985 </r>
       <r>   -26.5866     7.7766   132.0000 </r>
       <r>   -26.3421     0.4557   132.1114 </r>
       <r>   -26.0976    26.2491   138.5299 </r>
       <r>   -25.8531   139.1833   172.5632 </r>
       <r>   -25.6086   183.9406   217.5407 </r>
       <r>   -25.3640   133.7044   250.2343 </r>
       <r>   -25.1195    40.5236   260.1432 </r>
       <r>   -24.8750    38.5434   269.5679 </r>
       <r>   -24.6305    10.6185   272.1643 </r>
       <r>   -24.3859     7.5081   274.0002 </r>
       <r>   -24.1414     8.1731   275.9987 </r>
       <r>   -23.8969     3.3612   276.8206 </r>
       <r>   -23.6524     6.6768   278.4532 </r>
       <r>   -23.4079    61.2997   293.4423 </r>
       <r>   -23.1633   131.4089   325.5746 </r>
       <r>   -22.9188   132.7835   358.0431 </r>
       <r>   -22.6743    43.6373   368.7134 </r>
       <r>   -22.4298    13.4411   372.0000 </r>
       <r>   -22.1853     0.0000   372.0000 </r>
       <r>   -21.9407     0.0579   372.0142 </r>
       <r>   -21.6962     8.1213   374.0000 </r>
       <r>   -21.4517     0.0000   374.0000 </r>
       <r>   -21.2072     0.0000   374.0000 </r>
       <r>   -20.9626     0.0000   374.0000 </r>
       <r>   -20.7181     0.0000   374.0000 </r>
       <r>   -20.4736     0.0000   374.0000 </r>
       <r>   -20.2291     0.0000   374.0000 </r>
       <r>   -19.9846     0.0000   374.0000 </r>
       <r>   -19.7400     0.0000   374.0000 </r>
       <r>   -19.4955     0.0000   374.0000 </r>
       <r>   -19.2510     0.0000   374.0000 </r>
       <r>   -19.0065     0.0000   374.0000 </r>
       <r>   -18.7619     0.0000   374.0000 </r>
       <r>   -18.5174     0.0000   374.0000 </r>
       <r>   -18.2729     0.0000   374.0000 </r>
       <r>   -18.0284     0.0000   374.0000 </r>
       <r>   -17.7839     0.0000   374.0000 </r>
       <r>   -17.5393     0.0000   374.0000 </r>
       <r>   -17.2948     0.0000   374.0000 </r>
       <r>   -17.0503     0.0000   374.0000 </r>
       <r>   -16.8058     0.0000   374.0000 </r>
       <r>   -16.5613     0.0000   374.0000 </r>
       <r>   -16.3167     0.0000   374.0000 </r>
       <r>   -16.0722     0.0000   374.0000 </r>
       <r>   -15.8277     0.0000   374.0000 </r>
       <r>   -15.5832     0.0000   374.0000 </r>
       <r>   -15.3386     0.0000   374.0000 </r>
       <r>   -15.0941     0.0000   374.0000 </r>
       <r>   -14.8496     0.0000   374.0000 </r>
       <r>   -14.6051     0.0000   374.0000 </r>
       <r>   -14.3606     0.0000   374.0000 </r>
       <r>   -14.1160     0.0000   374.0000 </r>
       <r>   -13.8715     0.0000   374.0000 </r>
       <r>   -13.6270     0.0000   374.0000 </r>
       <r>   -13.3825     0.0000   374.0000 </r>
       <r>   -13.1380     0.0000   374.0000 </r>
       <r>   -12.8934     0.0000   374.0000 </r>
       <r>   -12.6489     0.0000   374.0000 </r>
       <r>   -12.4044     0.0000   374.0000 </r>
       <r>   -12.1599     0.0000   374.0000 </r>
       <r>   -11.9153     0.0000   374.0000 </r>
       <r>   -11.6708     0.0000   374.0000 </r>
       <r>   -11.4263     0.0000   374.0000 </r>
       <r>   -11.1818     0.0000   374.0000 </r>
       <r>   -10.9373     0.0000   374.0000 </r>
       <r>   -10.6927     0.0000   374.0000 </r>
       <r>   -10.4482     0.0000   374.0000 </r>
       <r>   -10.2037     0.0000   374.0000 </r>
       <r>    -9.9592     0.0000   374.0000 </r>
       <r>    -9.7147     0.0000   374.0000 </r>
       <r>    -9.4701     0.0000   374.0000 </r>
       <r>    -9.2256     0.0000   374.0000 </r>
       <r>    -8.9811     0.0000   374.0000 </r>
       <r>    -8.7366     0.0000   374.0000 </r>
       <r>    -8.4920     0.0000   374.0000 </r>
       <r>    -8.2475     0.0000   374.0000 </r>
       <r>    -8.0030     0.0000   374.0000 </r>
       <r>    -7.7585     0.0000   374.0000 </r>
       <r>    -7.5140     0.0000   374.0000 </r>
       <r>    -7.2694     0.0000   374.0000 </r>
       <r>    -7.0249     0.0000   374.0000 </r>
       <r>    -6.7804     0.0000   374.0000 </r>
       <r>    -6.5359     0.0000   374.0000 </r>
       <r>    -6.2913     0.0000   374.0000 </r>
       <r>    -6.0468     0.0000   374.0000 </r>
       <r>    -5.8023     0.0000   374.0000 </r>
       <r>    -5.5578     0.0000   374.0000 </r>
       <r>    -5.3133     0.0000   374.0000 </r>
       <r>    -5.0687     0.0000   374.0000 </r>
       <r>    -4.8242     0.0000   374.0000 </r>
       <r>    -4.5797     0.0000   374.0000 </r>
       <r>    -4.3352     0.0000   374.0000 </r>
       <r>    -4.0907     0.0000   374.0000 </r>
       <r>    -3.8461     0.0000   374.0000 </r>
       <r>    -3.6016     0.0000   374.0000 </r>
       <r>    -3.3571     0.0000   374.0000 </r>
       <r>    -3.1126     0.0000   374.0000 </r>
       <r>    -2.8680     0.0000   374.0000 </r>
       <r>    -2.6235     0.0000   374.0000 </r>
       <r>    -2.3790     0.0000   374.0000 </r>
       <r>    -2.1345     0.0000   374.0000 </r>
       <r>    -1.8900     0.0000   374.0000 </r>
       <r>    -1.6454     0.0000   374.0000 </r>
       <r>    -1.4009     0.0000   374.0000 </r>
       <r>    -1.1564     0.0000   374.0000 </r>
       <r>    -0.9119     0.0000   374.0000 </r>
       <r>    -0.6674     0.0000   374.0000 </r>
       <r>    -0.4228     0.0000   374.0000 </r>
       <r>    -0.1783     0.0000   374.0000 </r>
       <r>     0.0662     1.0155   374.2483 </r>
       <r>     0.3107     0.1116   374.2756 </r>
       <r>     0.5553     4.5278   375.3828 </r>
       <r>     0.7998     4.2952   376.4330 </r>
       <r>     1.0443     6.3804   377.9932 </r>
       <r>     1.2888     4.6362   379.1268 </r>
       <r>     1.5333     3.6010   380.0073 </r>
       <r>     1.7779     6.4485   381.5841 </r>
       <r>     2.0224     6.5701   383.1907 </r>
       <r>     2.2669    11.1726   385.9226 </r>
       <r>     2.5114    13.1656   389.1419 </r>
       <r>     2.7560    13.1301   392.3525 </r>
       <r>     3.0005     9.6233   394.7056 </r>
       <r>     3.2450    16.1275   398.6491 </r>
       <r>     3.4895    32.4912   406.5939 </r>
       <r>     3.7340    52.6904   419.4779 </r>
       <r>     3.9786    73.0448   437.3389 </r>
       <r>     4.2231    77.5506   456.3017 </r>
       <r>     4.4676    87.9231   477.8008 </r>
       <r>     4.7121    91.0968   500.0760 </r>
       <r>     4.9566    92.9985   522.8161 </r>
       <r>     5.2012    83.8618   543.3221 </r>
       <r>     5.4457    71.0761   560.7018 </r>
       <r>     5.6902    59.1001   575.1530 </r>
       <r>     5.9347    57.2572   589.1536 </r>
       <r>     6.1793    64.0508   604.8155 </r>
       <r>     6.4238    63.4535   620.3312 </r>
       <r>     6.6683    72.5520   638.0717 </r>
       <r>     6.9128    70.8582   655.3981 </r>
       <r>     7.1573    71.1867   672.8048 </r>
       <r>     7.4019    65.4414   688.8066 </r>
       <r>     7.6464    68.5166   705.5604 </r>
       <r>     7.8909    62.5193   720.8477 </r>
       <r>     8.1354    55.7928   734.4903 </r>
       <r>     8.3799    52.0028   747.2061 </r>
       <r>     8.6245    50.6538   759.5921 </r>
       <r>     8.8690    54.0293   772.8034 </r>
       <r>     9.1135    58.7173   787.1610 </r>
       <r>     9.3580    52.4373   799.9831 </r>
       <r>     9.6026    16.4276   804.0000 </r>
       <r>     9.8471     0.0000   804.0000 </r>
       <r>    10.0916     0.0000   804.0000 </r>
       <r>    10.3361     0.0000   804.0000 </r>
       <r>    10.5806     0.0000   804.0000 </r>
       <r>    10.8252     0.0000   804.0000 </r>
       <r>    11.0697     0.0000   804.0000 </r>
       <r>    11.3142     0.0000   804.0000 </r>
       <r>    11.5587     0.0000   804.0000 </r>
       <r>    11.8033     0.0000   804.0000 </r>
       <r>    12.0478     0.0000   804.0000 </r>
       <r>    12.2923     0.0000   804.0000 </r>
       <r>    12.5368     0.0000   804.0000 </r>
       <r>    12.7813     0.0000   804.0000 </r>
      </set>
     </set>
    </array>
   </total>
  </dos>
 </calculation>
 <structure name="finalpos" >
  <crystal>
   <varray name="basis" >
    <v>      10.29480300       0.53629400      -0.03112700 </v>
    <v>       0.50291200       9.32717300       0.23653600 </v>
    <v>       0.01475300       0.12986000       9.39019600 </v>
   </varray>
   <i name="volume">    898.81513016 </i>
   <varray name="rec_basis" >
    <v>       0.09740965      -0.00525019      -0.00008043 </v>
    <v>      -0.00560732       0.10755346      -0.00147858 </v>
    <v>       0.00046414      -0.00272664       0.10653103 </v>
   </varray>
  </crystal>
  <varray name="positions" >
   <v>       0.32991380       0.34990288       0.01891671 </v>
   <v>       0.28192409       0.71162644       0.99271434 </v>
   <v>       0.67147708       0.00279117       0.30665418 </v>
   <v>       0.30509079       0.38964795       0.36662374 </v>
   <v>       0.02871190       0.62466575       0.35089659 </v>
   <v>       0.97600361       0.00212645       0.65950509 </v>
   <v>       0.86778867       0.18074309       0.10741601 </v>
   <v>       0.79637322       0.48872389       0.19680845 </v>
   <v>       0.54506998       0.85996143       0.08269833 </v>
   <v>       0.21888716       0.11701296       0.50359636 </v>
   <v>       0.51283653       0.16605823       0.50798560 </v>
   <v>       0.54965547       0.49944925       0.47178093 </v>
   <v>       0.47135445       0.83456615       0.53511140 </v>
   <v>       0.78779340       0.79635472       0.52387885 </v>
   <v>       0.10595530       0.20672901       0.86060794 </v>
   <v>       0.86386702       0.46738696       0.85126495 </v>
   <v>       0.64644643       0.09792462       0.02968396 </v>
   <v>       0.03659650       0.38137154       0.07760818 </v>
   <v>       0.69151772       0.65474816       0.98363478 </v>
   <v>       0.66191794       0.70561990       0.29956489 </v>
   <v>       0.35656899       0.06572974       0.75186018 </v>
   <v>       0.70190839       0.01272941       0.64120082 </v>
   <v>       0.92895726       0.27977443       0.63289136 </v>
   <v>       0.68077602       0.62630106       0.65950666 </v>
   <v>       0.19375822       0.53888611       0.16654627 </v>
   <v>       0.15716142       0.82941085       0.21361284 </v>
   <v>       0.82432286       0.14631449       0.84296218 </v>
   <v>       0.14751120       0.49127924       0.86768938 </v>
   <v>       0.23342594       0.86653983       0.75473685 </v>
   <v>       0.05297047       0.92970663       0.97490912 </v>
   <v>       0.30852739       0.00785038       0.00354068 </v>
   <v>       0.60385282       0.38028362       0.94685972 </v>
   <v>       0.99737481       0.65009476       0.02707233 </v>
   <v>       0.97908017       0.00445771       0.34302558 </v>
   <v>       0.37510495       0.94041981       0.30543055 </v>
   <v>       0.01601376       0.31287764       0.34620370 </v>
   <v>       0.57019170       0.30563046       0.22439891 </v>
   <v>       0.38883293       0.71401862       0.30231851 </v>
   <v>       0.38120885       0.33305952       0.71058978 </v>
   <v>       0.67752638       0.31972655       0.69030333 </v>
   <v>       0.03425542       0.71829441       0.73607545 </v>
   <v>       0.28452000       0.60519729       0.66459106 </v>
   <v>       0.15871256       0.13844993       0.18073274 </v>
   <v>       0.42875419       0.14008162       0.21150639 </v>
   <v>       0.50171556       0.56476007       0.12448854 </v>
   <v>       0.85070762       0.82412040       0.17274835 </v>
   <v>       0.77847426       0.23211034       0.41773197 </v>
   <v>       0.10936407       0.43146600       0.60821435 </v>
   <v>       0.85435570       0.47639538       0.50758566 </v>
   <v>       0.16312877       0.82086466       0.49527440 </v>
   <v>       0.55885937       0.05092366       0.79724538 </v>
   <v>       0.49566374       0.57020014       0.82918670 </v>
   <v>       0.53090723       0.77053906       0.73302446 </v>
   <v>       0.82632732       0.86409526       0.88898511 </v>
  </varray>
 </structure>
</modeling>
