unknown system                          
           1
    10.294803    0.536294   -0.031127
     0.502912    9.327173    0.236536
     0.014753    0.129860    9.390196
   Hf   Ni   Ti
  16  13  25
Direct configuration=     1
   0.32991380  0.34990288  0.01891671
   0.28192409  0.71162644  0.99271434
   0.67147708  0.00279117  0.30665418
   0.30509079  0.38964795  0.36662374
   0.02871190  0.62466575  0.35089659
   0.97600361  0.00212645  0.65950509
   0.86778867  0.18074309  0.10741601
   0.79637322  0.48872389  0.19680845
   0.54506998  0.85996143  0.08269833
   0.21888716  0.11701296  0.50359636
   0.51283653  0.16605823  0.50798560
   0.54965547  0.49944925  0.47178093
   0.47135445  0.83456615  0.53511140
   0.78779340  0.79635472  0.52387885
   0.10595530  0.20672901  0.86060794
   0.86386702  0.46738696  0.85126495
   0.64644643  0.09792462  0.02968396
   0.03659650  0.38137154  0.07760818
   0.69151772  0.65474816  0.98363478
   0.66191794  0.70561990  0.29956489
   0.35656899  0.06572974  0.75186018
   0.70190839  0.01272941  0.64120082
   0.92895726  0.27977443  0.63289136
   0.68077602  0.62630106  0.65950666
   0.19375822  0.53888611  0.16654627
   0.15716142  0.82941085  0.21361284
   0.82432286  0.14631449  0.84296218
   0.14751120  0.49127924  0.86768938
   0.23342594  0.86653983  0.75473685
   0.05297047  0.92970663  0.97490912
   0.30852739  0.00785038  0.00354068
   0.60385282  0.38028362  0.94685972
   0.99737481  0.65009476  0.02707233
   0.97908017  0.00445771  0.34302558
   0.37510495  0.94041981  0.30543055
   0.01601376  0.31287764  0.34620370
   0.57019170  0.30563046  0.22439891
   0.38883293  0.71401862  0.30231851
   0.38120885  0.33305952  0.71058978
   0.67752638  0.31972655  0.69030333
   0.03425542  0.71829441  0.73607545
   0.28452000  0.60519729  0.66459106
   0.15871256  0.13844993  0.18073274
   0.42875419  0.14008162  0.21150639
   0.50171556  0.56476007  0.12448854
   0.85070762  0.82412040  0.17274835
   0.77847426  0.23211034  0.41773197
   0.10936407  0.43146600  0.60821435
   0.85435570  0.47639538  0.50758566
   0.16312877  0.82086466  0.49527440
   0.55885937  0.05092366  0.79724538
   0.49566374  0.57020014  0.82918670
   0.53090723  0.77053906  0.73302446
   0.82632732  0.86409526  0.88898511
