BEGIN_CFG
 Size
    2
 Supercell
         1.600221     -2.771663     -0.000000
         1.600221      2.771663     -0.000000
         0.000000      0.000000      5.056971
 AtomData:  id type       cartes_x      cartes_y      cartes_z           fx          fy          fz
             1    0       1.600222     -0.923887      3.792728    -0.000006   -0.000003    0.000003
             2    0       1.600219      0.923887      1.264243     0.000006    0.000003   -0.000003
 Energy
        -19.795223353917
 PlusStress:  xx          yy          zz          yz          xz          xy
        -0.22283    -0.22282     0.34085     0.00000     0.00000    -0.00000
 Feature   mindist	3.131694
END_CFG

BEGIN_CFG
 Size
    4
 Supercell
         3.250834      0.000000      0.000000
         1.625417      4.913630      0.000000
         0.000000      0.000000      4.057107
 AtomData:  id type       cartes_x      cartes_y      cartes_z           fx          fy          fz
             1    0       3.250834      3.543314      1.014277     0.000000   -0.417378   -0.000003
             2    0       1.625417      1.370316      3.042830    -0.000000    0.417378    0.000003
             3    1       3.250834      0.821916      1.014277    -0.000000   -0.050789   -0.000004
             4    1       1.625417      4.091714      3.042830     0.000000    0.050789    0.000004
 Energy
        -32.672079023933
 PlusStress:  xx          yy          zz          yz          xz          xy
        -1.12253    -2.32612    -0.96606     0.00000    -0.00000    -0.00000
 Feature   mindist	2.610980
END_CFG

BEGIN_CFG
 Size
    3
 Supercell
         2.341461     -4.055530     -0.000000
         2.341472      4.055536     -0.000008
        -0.000005     -0.000003      2.978381
 AtomData:  id type       cartes_x      cartes_y      cartes_z           fx          fy          fz
             1    0       2.341447     -4.055505      0.000000     0.000022   -0.000042   -0.000000
             2    2       2.341470     -1.351828      1.505050    -0.000107   -0.000034   -0.035971
             3    2       2.341448      1.351846      1.473323     0.000085    0.000076    0.035971
 Energy
        -25.362524054210
 PlusStress:  xx          yy          zz          yz          xz          xy
         0.96854     0.96861     0.54460     0.00002     0.00004    -0.00006
 Feature   mindist	2.703860
END_CFG

BEGIN_CFG
 Size
    16
 Supercell
         5.273069      0.000000      0.000000
        -2.636535      4.566612      0.000000
         0.000000      0.000000      8.557182
 AtomData:  id type       cartes_x      cartes_y      cartes_z           fx          fy          fz
             1    0       0.000000      0.000000      0.000000     0.000005    0.000001   -0.000005
             2    0       0.000000      0.000000      4.278591     0.000005    0.000001   -0.000006
             3    0       0.000000      3.044408      2.139295     0.000004    0.000002    0.000005
             4    0       2.636535      1.522204      6.417886    -0.000004    0.000007    0.000005
             5    1      -1.318267      2.283306      0.000000    -0.000002    0.000002   -0.000005
             6    1      -1.318267      2.283306      4.278591    -0.000002    0.000002   -0.000004
             7    1       0.000000      1.613800      6.417886     0.000003   -0.347927    0.000005
             8    1      -1.238943      3.759713      6.417886    -0.301317    0.173958    0.000005
             9    1       1.397592      0.806900      2.139295    -0.301316   -0.173963    0.000005
            10    1       2.636535      0.000000      0.000000    -0.000003    0.000001   -0.000003
            11    1       2.636535      0.000000      4.278591    -0.000003    0.000001   -0.000006
            12    1       1.318267      2.283306      0.000000     0.000003   -0.000001   -0.000005
            13    1       1.318267      2.283306      4.278591     0.000003   -0.000001   -0.000004
            14    1       1.238943      3.759713      6.417886     0.301317    0.173956    0.000005
            15    1       3.875478      0.806900      2.139295     0.301313   -0.173964    0.000005
            16    1       2.636535      2.952813      2.139295    -0.000004    0.347925    0.000005
 Energy
       -113.056719361859
 PlusStress:  xx          yy          zz          yz          xz          xy
        -9.71729    -9.71731    -8.23286    -0.00000    -0.00000     0.00001
 Feature   mindist	2.477886
END_CFG

BEGIN_CFG
 Size
    3
 Supercell
         2.489743      0.000000      0.000000
         1.244871      2.156180      0.000000
         0.000000      0.000000      6.027844
 AtomData:  id type       cartes_x      cartes_y      cartes_z           fx          fy          fz
             1    1       1.660610      1.436100      2.009281    -0.001689    0.002925    0.000006
             2    1       2.905482      0.720081      4.018563    -0.001690   -0.002926   -0.000006
             3    1       1.658265      0.000000      0.000000     0.003379    0.000001    0.000000
 Energy
        -16.104867388841
 PlusStress:  xx          yy          zz          yz          xz          xy
        -3.32567    -3.32565    -2.42447     0.00000    -0.00000     0.00001
 Feature   mindist	2.469737
END_CFG

BEGIN_CFG
 Size
    16
 Supercell
         5.107943      0.000000      0.000000
        -2.553971      4.423609      0.000000
         0.000000      0.000000      8.344596
 AtomData:  id type       cartes_x      cartes_y      cartes_z           fx          fy          fz
             1    1      -1.276986      2.211804      0.000000     0.000003    0.000003    0.000001
             2    1      -1.276986      2.211804      4.172298     0.000003    0.000003   -0.000001
             3    1       0.000000      1.518769      6.258447    -0.000002   -0.483347   -0.000000
             4    1      -1.238679      3.664224      6.258447    -0.418589    0.241673   -0.000000
             5    1       1.315292      0.759384      2.086149    -0.418584   -0.241670    0.000000
             6    1       2.553971      0.000000      0.000000     0.000003   -0.000005    0.000001
             7    1       2.553971      0.000000      4.172298     0.000003   -0.000005   -0.000001
             8    1       1.276986      2.211804      0.000000    -0.000004    0.000005    0.000000
             9    1       1.276986      2.211804      4.172298    -0.000004    0.000005   -0.000000
            10    1       1.238679      3.664224      6.258447     0.418590    0.241675   -0.000000
            11    1       3.792651      0.759384      2.086149     0.418580   -0.241670    0.000000
            12    1       2.553971      2.904840      2.086149     0.000006    0.483339    0.000000
            13    2       0.000000      0.000000      0.000000    -0.000004   -0.000003   -0.000002
            14    2       0.000000      0.000000      4.172298    -0.000004   -0.000003    0.000002
            15    2       0.000000      2.949072      2.086149    -0.000002    0.000003    0.000000
            16    2       2.553971      1.474536      6.258447     0.000004   -0.000001   -0.000000
 Energy
       -104.140349448752
 PlusStress:  xx          yy          zz          yz          xz          xy
        -8.77777    -8.77780    -8.37704     0.00000    -0.00000    -0.00001
 Feature   mindist	2.477358
END_CFG

BEGIN_CFG
 Size
    4
 Supercell
         2.925109      0.000000      0.000000
         0.000000      0.000000      4.012272
        -1.462555     -4.696838      0.000000
 AtomData:  id type       cartes_x      cartes_y      cartes_z           fx          fy          fz
             1    1       1.462555     -3.893013      1.003068    -0.000003   -0.311096   -0.000000
             2    1      -0.000000     -0.803824      3.009204     0.000003    0.311096    0.000000
             3    2       1.462555     -1.342647      1.003068    -0.000001   -0.127401   -0.000000
             4    2       0.000000     -3.354190      3.009204     0.000001    0.127401    0.000000
 Energy
        -27.962474691603
 PlusStress:  xx          yy          zz          yz          xz          xy
        -0.85593    -0.98740     0.83215     0.00000    -0.00000    -0.00000
 Feature   mindist	2.540468
END_CFG

BEGIN_CFG
 Size
    3
 Supercell
        -1.500889      1.500889      4.881813
         1.500889     -1.500889      4.881813
         1.500889      1.500889     -4.881813
 AtomData:  id type       cartes_x      cartes_y      cartes_z           fx          fy          fz
             1    1       0.000000      0.000000      0.000000     0.000000    0.000000    0.000000
             2    2       0.000000      0.000000      3.350524    -0.000000   -0.000000   -0.153267
             3    2       0.000000      0.000000      6.413102     0.000000   -0.000000    0.153267
 Energy
        -22.010738874263
 PlusStress:  xx          yy          zz          yz          xz          xy
        -1.17744    -1.17744    -0.54270    -0.00000    -0.00000     0.00000
 Feature   mindist	2.617285
END_CFG

BEGIN_CFG
 Size
    2
 Supercell
         1.464757     -2.537034      0.000000
         1.464757      2.537034      0.000000
         0.000000      0.000000      4.642045
 AtomData:  id type       cartes_x      cartes_y      cartes_z           fx          fy          fz
             1    2       0.000000      0.000000      0.000000     0.000000    0.000000    0.000003
             2    2       1.464757     -0.845678      2.321023    -0.000000   -0.000000   -0.000003
 Energy
        -15.657141626701
 PlusStress:  xx          yy          zz          yz          xz          xy
        -0.53930    -0.53931    -0.14915     0.00000     0.00000    -0.00000
 Feature   mindist	2.871904
END_CFG

