BEGIN_CFG
Size
   18
SuperCell
        8.172932      0.661437     -0.000005
        0.547717      7.104002     -0.000013
       -0.000000      0.000004      4.190062
AtomData:  id type       cartes_x      cartes_y      cartes_z           fx          fy          fz
		    1    0       1.135367      0.936793      2.095019    -0.000024    0.000657    0.000102
		    2    0       5.299405      0.819893      0.000010     0.000066   -0.000501   -0.000222
		    3    0       5.496882      3.640913      2.095043     0.000442   -0.000542   -0.000286
		    4    0       7.664767      5.262996      0.000005    -0.000162    0.000133   -0.000315
		    5    1       8.563463      7.714903      4.190041    -0.000094    0.000130    0.000059
		    6    1       2.742932      0.569138      4.190058    -0.000142    0.000222   -0.000070
		    7    1       3.801104      1.555243      2.095019    -0.000168   -0.000009    0.000188
		    8    1       6.750003      1.351574      2.095032    -0.000439   -0.000616   -0.000068
		    9    1       1.321757      2.675664     -0.000004    -0.000106    0.000252   -0.000079
		   10    1       3.828967      3.089581     -0.000002     0.000231   -0.000436   -0.000026
		   11    1       6.937798      2.831597      4.190032     0.000122    0.000079    0.000283
		   12    1       8.087242      3.819725      2.095010    -0.000101    0.000678    0.000184
		   13    1       0.784881      5.630239      2.095032     0.000275    0.000233   -0.000054
		   14    1       5.020433      5.387271      0.000013     0.000089   -0.000740   -0.000325
		   15    1       6.321487      6.192559      2.094982     0.000231   -0.000064    0.000437
		   16    2       2.428045      3.658313      2.095021     0.000238    0.000073    0.000027
		   17    2       2.288638      5.372797     -0.000010    -0.000061    0.000120   -0.000039
		   18    2       3.825278      6.158501      2.095005    -0.000396    0.000331    0.000204
Energy
	   -131.68909392210938
PlusStress:  xx          yy          zz          yz          xz          xy
       -0.00150     0.00288     0.00244    -0.00172     0.00031     0.00041
Feature   mindist 2.465
END_CFG

BEGIN_CFG
Size
   18
SuperCell
        6.951882      0.593877      0.000032
        0.593298      8.071806      0.000050
       -0.000004     -0.000011      4.173300
AtomData:  id type       cartes_x      cartes_y      cartes_z           fx          fy          fz
		    1    0       6.392617      7.901406      0.000081    -0.000182   -0.000221   -0.000135
		    2    0       3.613269      7.765013      2.086664    -0.000434    0.000314    0.000666
		    3    1       1.325038      0.121699      0.000025    -0.000124   -0.000147   -0.000258
		    4    1       2.885943      2.415586      2.086661    -0.000238    0.000376   -0.000018
		    5    1       3.592880      1.161837      4.173310     0.000264    0.000274   -0.000222
		    6    1       5.086360      1.257495      2.086656    -0.000080   -0.000204    0.000217
		    7    1       6.008452      2.384718      4.173332    -0.000361    0.000493   -0.000087
		    8    1       1.461468      2.665477      4.173301    -0.000000   -0.000267    0.000116
		    9    1       3.409955      5.145557      2.086703    -0.000334   -0.000598    0.000092
		   10    1       5.441416      3.735088      2.086717    -0.000160    0.000258   -0.000141
		   11    1       1.132369      6.895238      2.086707     0.000461   -0.000157    0.000045
		   12    1       4.317572      6.244739      0.000084     0.000370    0.000177   -0.000486
		   13    1       5.843565      6.271719      2.086725     0.000490   -0.000036    0.000046
		   14    2       0.457923      1.447352      2.086615     0.000012   -0.000186    0.000335
		   15    2       1.106201      4.122303      2.086698     0.000026   -0.000272   -0.000112
		   16    2       3.789181      3.613021      4.173322     0.000087   -0.000371    0.000104
		   17    2       6.358370      4.860125      0.000075     0.000117    0.000372    0.000009
		   18    2       1.911419      5.649836      0.000068     0.000086    0.000195   -0.000172
Energy
	   -127.1060964451148
PlusStress:  xx          yy          zz          yz          xz          xy
       -0.00252    -0.00144    -0.00104     0.00082    -0.00036    -0.00036
Feature   mindist 2.452
END_CFG

BEGIN_CFG
Size
   18
SuperCell
        7.042971     -0.494496     -0.000000
       -0.493265      7.894498      0.000000
       -0.000002      0.000003      4.173046
AtomData:  id type       cartes_x      cartes_y      cartes_z           fx          fy          fz
		    1    0       6.015863      0.941667      2.086511     0.000355    0.000015    0.000114
		    2    0       3.071818      6.965520      2.086528     0.000050    0.000052   -0.000088
		    3    1       6.786653     -0.397470      0.000006     0.000163   -0.000051   -0.000025
		    4    1       1.261910      0.284076      2.086548     0.000343    0.000290   -0.000356
		    5    1       1.462377      6.873009      0.000032    -0.000098   -0.000035   -0.000429
		    6    1       3.483292      1.762615      2.086536     0.000126   -0.000254   -0.000178
		    7    1       4.355213      0.530702      0.000002    -0.000086   -0.000386   -0.000011
		    8    1      -0.181200      2.933225      4.173026    -0.000331   -0.000380    0.000261
		    9    1       3.654565      4.390480      2.086517     0.000128    0.000182    0.000057
		   10    1       5.904496      3.527882      2.086542     0.000417    0.000329   -0.000264
		   11    1       0.884665      5.562304      2.086492     0.000146   -0.000041    0.000437
		   12    1       4.189689      5.827599      4.173012    -0.000364    0.000112    0.000474
		   13    1       5.625017      6.194787      2.086542     0.000045    0.000047   -0.000307
		   14    2       1.325060      3.091911      2.086522     0.000294    0.000197    0.000034
		   15    2       1.959331      1.433454      4.172999     0.000187    0.000213    0.000663
		   16    2       4.370152      3.061681      0.000001    -0.000340    0.000021   -0.000030
		   17    2       6.462064      4.946284      4.173037    -0.000484   -0.000051    0.000109
		   18    2       2.084496      4.475817      0.000034    -0.000552   -0.000260   -0.000460
Energy
	   -127.03421657734268
PlusStress:  xx          yy          zz          yz          xz          xy
       -0.00118     0.00073    -0.00024     0.00123    -0.00037     0.00019
Feature   mindist 2.41
END_CFG

BEGIN_CFG
Size
   18
SuperCell
        7.884102     -0.498185      0.000000
       -0.494593      6.868194     -0.000000
        0.000000     -0.000000      4.167200
AtomData:  id type       cartes_x      cartes_y      cartes_z           fx          fy          fz
		    1    0       7.281447      0.336323      2.083608     0.000143    0.000303   -0.000140
		    2    0       6.768050      4.487370      0.000019     0.000083    0.000133   -0.000328
		    3    1       0.880659      0.234675      4.167186    -0.000138   -0.000519    0.000270
		    4    1       2.167848      0.919934      2.083616     0.000223    0.000261   -0.000280
		    5    1       3.358091     -0.031649      4.167197     0.000070    0.000035    0.000058
		    6    1       4.691080      0.654268      2.083597     0.000284    0.000665    0.000042
		    7    1       5.782813     -0.315472      0.000000     0.000079    0.000045   -0.000067
		    8    1       7.602367      2.010456      0.000002    -0.000532   -0.000566   -0.000032
		    9    1       3.710068      2.983400      2.083584    -0.000514    0.000125    0.000272
		   10    1       6.331821      2.804236      2.083590     0.000188    0.000447    0.000147
		   11    1       0.425422      5.628484      2.083601    -0.000709    0.000010   -0.000028
		   12    1       1.499869      4.690495      4.167194    -0.000477   -0.000345    0.000083
		   13    1       4.068005      4.337390      0.000021     0.000198   -0.000365   -0.000402
		   14    1       5.313386      5.068915      2.083581     0.000248    0.000229    0.000393
		   15    2       0.989691      3.327549      2.083606     0.000738    0.000408   -0.000067
		   16    2       2.374333      2.285862      4.167196    -0.000303   -0.000824    0.000073
		   17    2       5.042153      1.967393      0.000006     0.000291   -0.000455   -0.000069
		   18    2       2.902416      5.389062      2.083596     0.000128    0.000416    0.000074
Energy
	   -125.01526336755853
PlusStress:  xx          yy          zz          yz          xz          xy
        0.00363     0.00138     0.00450     0.00035     0.00002    -0.00007
Feature   mindist 2.369
END_CFG

BEGIN_CFG
Size
   18
SuperCell
        8.052182     -0.715866     -0.000000
       -0.699432      6.801287      0.000010
       -0.000006     -0.000011      4.200660
AtomData:  id type       cartes_x      cartes_y      cartes_z           fx          fy          fz
		    1    0       0.524779      0.712982      2.100336    -0.000009    0.000042   -0.000074
		    2    0       5.618487      0.444291      2.100332    -0.000020   -0.000196   -0.000007
		    3    0      -0.410449      4.757444      4.200663     0.000220    0.000198    0.000049
		    4    1       6.977766     -0.443212      0.000010    -0.000203    0.000344   -0.000122
		    5    1       1.846662      0.002304      0.000001     0.000166   -0.000288    0.000010
		    6    1       3.109561      0.727319      2.100333    -0.000357    0.000000   -0.000035
		    7    1       4.259377     -0.267621      4.200655     0.000002   -0.000208    0.000092
		    8    1       0.582398      2.325987      4.200655    -0.000095    0.000053    0.000105
		    9    1       4.611384      2.852443      2.100333     0.000022    0.000095    0.000039
		   10    1       5.902471      2.066122      0.000006    -0.000254   -0.000306   -0.000017
		   11    1       7.357406      2.414405      2.100339     0.000028   -0.000020   -0.000088
		   12    1       1.084960      5.384019      2.100334    -0.000100    0.000080    0.000034
		   13    1       2.189170      4.424953      0.000008     0.000183   -0.000383    0.000000
		   14    1       3.512964      5.110005      2.100343    -0.000003    0.000086   -0.000062
		   15    1       6.131292      4.842717      2.100325    -0.000309    0.000115    0.000151
		   16    2       1.912332      3.170604      2.100336    -0.000031    0.000296   -0.000026
		   17    2       3.293217      2.022815      4.200663     0.000513   -0.000057    0.000012
		   18    2       4.693983      4.377119      0.000013     0.000247    0.000149   -0.000060
Energy
	   -127.27814657345417
PlusStress:  xx          yy          zz          yz          xz          xy
       -0.00065    -0.00227    -0.00144     0.00150    -0.00003     0.00013
Feature   mindist 2.363
END_CFG

