BEGIN_CFG
 Size
    1
 Supercell
    2.2628824789999999e+00 0.0000000000000000e+00 2.2628824789999999e+00
    2.2628824789999999e+00 2.2628824789999999e+00 0.0000000000000000e+00
    -2.2628824789999999e+00 2.2628824789999999e+00 0.0000000000000000e+00
 AtomData:  id type       cartes_x      cartes_y      cartes_z           fx          fy          fz
    1 0  0.0000000000000000e+00 0.0000000000000000e+00 0.0000000000000000e+00  -0.0000000000000000e+00 -0.0000000000000000e+00 -0.0000000000000000e+00
 Energy
    -9.8442923800000006e+00
 PlusStress:  xx          yy          zz          yz          xz          xy
     -4.8266999999999999e-01 -4.8266999999999999e-01 -4.8266999999999999e-01 0.0000000000000000e+00 -0.0000000000000000e+00 -0.0000000000000000e+00
 Feature   EFS_by	VASP
END_CFG

BEGIN_CFG
 Size
    3
 Supercell
    2.0952558469999998e+00 2.0952558469999998e+00 0.0000000000000000e+00
    -4.1905116930000004e+00 4.1905116930000004e+00 4.1905116930000004e+00
    0.0000000000000000e+00 -2.0952558469999998e+00 2.0952558469999998e+00
 AtomData:  id type       cartes_x      cartes_y      cartes_z           fx          fy          fz
    1 0  0.0000000000000000e+00 0.0000000000000000e+00 0.0000000000000000e+00  9.6574700000000002e-01 -9.6574700000000002e-01 -9.6574700000000002e-01
    2 0  -0.0000000000000000e+00 2.0952600000000001e+00 2.0952600000000001e+00  -9.6574700000000002e-01 9.6574700000000002e-01 9.6574700000000002e-01
    3 1  -2.0952600000000001e+00 2.0952600000000001e+00 4.1905099999999997e+00  0.0000000000000000e+00 -0.0000000000000000e+00 -0.0000000000000000e+00
 Energy
    -2.4787232010000000e+01
 PlusStress:  xx          yy          zz          yz          xz          xy
     -1.3887499999999999e+00 -1.3887499999999999e+00 -1.3887499999999999e+00 -2.3029700000000002e+00 2.3029700000000002e+00 2.3029700000000002e+00
 Feature   EFS_by	VASP
END_CFG

BEGIN_CFG
 Size
    4
 Supercell
    0.0000000000000000e+00 0.0000000000000000e+00 3.8460974100000000e+00
    -1.9230487050000000e+00 3.8460974100000000e+00 1.9230487050000000e+00
    -3.8460974100000000e+00 0.0000000000000000e+00 0.0000000000000000e+00
 AtomData:  id type       cartes_x      cartes_y      cartes_z           fx          fy          fz
    1 1  0.0000000000000000e+00 0.0000000000000000e+00 0.0000000000000000e+00  -0.0000000000000000e+00 -0.0000000000000000e+00 -0.0000000000000000e+00
    2 1  -3.8460999999999999e+00 1.9230499999999999e+00 1.9230499999999999e+00  0.0000000000000000e+00 0.0000000000000000e+00 0.0000000000000000e+00
    3 2  -1.9230499999999999e+00 0.0000000000000000e+00 1.9230499999999999e+00  0.0000000000000000e+00 -0.0000000000000000e+00 -0.0000000000000000e+00
    4 2  -1.9230499999999999e+00 1.9230499999999999e+00 3.8460999999999999e+00  0.0000000000000000e+00 0.0000000000000000e+00 0.0000000000000000e+00
 Energy
    -2.7615750810000002e+01
 PlusStress:  xx          yy          zz          yz          xz          xy
     -5.8681599999999996e+00 -4.4461199999999996e+00 -5.8681599999999996e+00 0.0000000000000000e+00 0.0000000000000000e+00 -0.0000000000000000e+00
 Feature   EFS_by	VASP
END_CFG

BEGIN_CFG
 Size
    4
 Supercell
    2.0045717660000002e+00 2.0045717660000002e+00 0.0000000000000000e+00
    -4.0091435320000004e+00 6.0137152970000001e+00 6.0137152970000001e+00
    0.0000000000000000e+00 -2.0045717660000002e+00 2.0045717660000002e+00
 AtomData:  id type       cartes_x      cartes_y      cartes_z           fx          fy          fz
    1 1  0.0000000000000000e+00 0.0000000000000000e+00 0.0000000000000000e+00  -0.0000000000000000e+00 0.0000000000000000e+00 -0.0000000000000000e+00
    2 2  0.0000000000000000e+00 2.0045700000000002e+00 2.0045700000000002e+00  6.1745899999999998e-01 -6.1745899999999998e-01 -6.1745899999999998e-01
    3 2  -2.0045700000000002e+00 2.0045700000000002e+00 4.0091400000000004e+00  -0.0000000000000000e+00 0.0000000000000000e+00 -0.0000000000000000e+00
    4 2  -2.0045700000000002e+00 4.0091400000000004e+00 6.0137200000000002e+00  -6.1745899999999998e-01 6.1745899999999998e-01 6.1745899999999998e-01
 Energy
    -2.8763792280000001e+01
 PlusStress:  xx          yy          zz          yz          xz          xy
     -3.2917999999999998e+00 -3.2917999999999998e+00 -3.2917999999999998e+00 -1.1252000000000000e+00 1.1252000000000000e+00 1.1252000000000000e+00
 Feature   EFS_by	VASP
END_CFG

BEGIN_CFG
 Size
    4
 Supercell
    2.0045717660000002e+00 2.0045717660000002e+00 0.0000000000000000e+00
    -4.0091435320000004e+00 4.0091435320000004e+00 0.0000000000000000e+00
    0.0000000000000000e+00 0.0000000000000000e+00 4.0091435320000004e+00
 AtomData:  id type       cartes_x      cartes_y      cartes_z           fx          fy          fz
    1 1  0.0000000000000000e+00 0.0000000000000000e+00 0.0000000000000000e+00  -0.0000000000000000e+00 0.0000000000000000e+00 0.0000000000000000e+00
    2 2  0.0000000000000000e+00 2.0045700000000002e+00 2.0045700000000002e+00  3.6790000000000000e-01 -3.6790000000000000e-01 -0.0000000000000000e+00
    3 2  -2.0045700000000002e+00 2.0045700000000002e+00 0.0000000000000000e+00  -0.0000000000000000e+00 0.0000000000000000e+00 -0.0000000000000000e+00
    4 2  -2.0045700000000002e+00 4.0091400000000004e+00 2.0045700000000002e+00  -3.6790000000000000e-01 3.6790000000000000e-01 0.0000000000000000e+00
 Energy
    -2.8995968890000000e+01
 PlusStress:  xx          yy          zz          yz          xz          xy
     -2.5327999999999999e+00 -2.5327999999999999e+00 -4.4459700000000000e+00 0.0000000000000000e+00 0.0000000000000000e+00 1.1477700000000000e+00
 Feature   EFS_by	VASP
END_CFG

BEGIN_CFG
 Size
    4
 Supercell
    2.0045717660000002e+00 2.0045717660000002e+00 0.0000000000000000e+00
    -4.0091435320000004e+00 2.0045717660000002e+00 2.0045717660000002e+00
    2.0045717660000002e+00 -2.0045717660000002e+00 4.0091435320000004e+00
 AtomData:  id type       cartes_x      cartes_y      cartes_z           fx          fy          fz
    1 1  0.0000000000000000e+00 0.0000000000000000e+00 0.0000000000000000e+00  -0.0000000000000000e+00 -0.0000000000000000e+00 0.0000000000000000e+00
    2 2  0.0000000000000000e+00 2.0045700000000002e+00 2.0045700000000002e+00  4.0392099999999997e-01 -4.0392099999999997e-01 -3.4254600000000002e-01
    3 2  2.0045700000000002e+00 0.0000000000000000e+00 2.0045700000000002e+00  -0.0000000000000000e+00 -0.0000000000000000e+00 0.0000000000000000e+00
    4 2  0.0000000000000000e+00 -0.0000000000000000e+00 4.0091400000000004e+00  -4.0392099999999997e-01 4.0392099999999997e-01 3.4254600000000002e-01
 Energy
    -2.8927731399999999e+01
 PlusStress:  xx          yy          zz          yz          xz          xy
     -3.0806100000000001e+00 -3.0806100000000001e+00 -4.3774800000000003e+00 5.3640000000000000e-02 -5.3640000000000000e-02 -3.0093999999999999e-01
 Feature   EFS_by	VASP
END_CFG

BEGIN_CFG
 Size
    4
 Supercell
    2.0045717660000002e+00 2.0045717660000002e+00 0.0000000000000000e+00
    -2.0045717660000002e+00 2.0045717660000002e+00 0.0000000000000000e+00
    0.0000000000000000e+00 0.0000000000000000e+00 8.0182870630000007e+00
 AtomData:  id type       cartes_x      cartes_y      cartes_z           fx          fy          fz
    1 1  0.0000000000000000e+00 0.0000000000000000e+00 0.0000000000000000e+00  0.0000000000000000e+00 -0.0000000000000000e+00 -0.0000000000000000e+00
    2 2  0.0000000000000000e+00 2.0045700000000002e+00 2.0045700000000002e+00  0.0000000000000000e+00 0.0000000000000000e+00 -1.4237070000000001e+00
    3 2  0.0000000000000000e+00 0.0000000000000000e+00 4.0091400000000004e+00  0.0000000000000000e+00 -0.0000000000000000e+00 0.0000000000000000e+00
    4 2  0.0000000000000000e+00 2.0045700000000002e+00 6.0137200000000002e+00  -0.0000000000000000e+00 -0.0000000000000000e+00 1.4237070000000001e+00
 Energy
    -2.9231896079999999e+01
 PlusStress:  xx          yy          zz          yz          xz          xy
     -2.2971300000000001e+00 -2.2971300000000001e+00 -4.5158899999999997e+00 0.0000000000000000e+00 0.0000000000000000e+00 0.0000000000000000e+00
 Feature   EFS_by	VASP
END_CFG

BEGIN_CFG
 Size
    4
 Supercell
    0.0000000000000000e+00 0.0000000000000000e+00 4.0091435320000004e+00
    -2.0045717660000002e+00 4.0091435320000004e+00 2.0045717660000002e+00
    -4.0091435320000004e+00 0.0000000000000000e+00 0.0000000000000000e+00
 AtomData:  id type       cartes_x      cartes_y      cartes_z           fx          fy          fz
    1 1  0.0000000000000000e+00 0.0000000000000000e+00 0.0000000000000000e+00  0.0000000000000000e+00 0.0000000000000000e+00 0.0000000000000000e+00
    2 2  -4.0091400000000004e+00 2.0045700000000002e+00 2.0045700000000002e+00  0.0000000000000000e+00 0.0000000000000000e+00 0.0000000000000000e+00
    3 2  -2.0045700000000002e+00 0.0000000000000000e+00 2.0045700000000002e+00  0.0000000000000000e+00 0.0000000000000000e+00 0.0000000000000000e+00
    4 2  -2.0045700000000002e+00 2.0045700000000002e+00 4.0091400000000004e+00  -0.0000000000000000e+00 -0.0000000000000000e+00 -0.0000000000000000e+00
 Energy
    -2.9070525190000001e+01
 PlusStress:  xx          yy          zz          yz          xz          xy
     -4.1343500000000004e+00 -2.2792100000000000e+00 -4.1343500000000004e+00 -0.0000000000000000e+00 0.0000000000000000e+00 -0.0000000000000000e+00
 Feature   EFS_by	VASP
END_CFG

BEGIN_CFG
 Size
    4
 Supercell
    2.1371625050000000e+00 2.1371625050000000e+00 0.0000000000000000e+00
    -2.1371625050000000e+00 2.1371625050000000e+00 4.2743250090000000e+00
    2.1371625050000000e+00 -2.1371625050000000e+00 4.2743250090000000e+00
 AtomData:  id type       cartes_x      cartes_y      cartes_z           fx          fy          fz
    1 0  0.0000000000000000e+00 0.0000000000000000e+00 0.0000000000000000e+00  0.0000000000000000e+00 0.0000000000000000e+00 -0.0000000000000000e+00
    2 0  2.1371600000000002e+00 -0.0000000000000000e+00 6.4114899999999997e+00  -0.0000000000000000e+00 -0.0000000000000000e+00 0.0000000000000000e+00
    3 0  0.0000000000000000e+00 2.1371600000000002e+00 6.4114899999999997e+00  0.0000000000000000e+00 0.0000000000000000e+00 0.0000000000000000e+00
    4 1  0.0000000000000000e+00 0.0000000000000000e+00 4.2743300000000000e+00  -0.0000000000000000e+00 -0.0000000000000000e+00 0.0000000000000000e+00
 Energy
    -3.4723453339999999e+01
 PlusStress:  xx          yy          zz          yz          xz          xy
     -3.0821999999999999e-01 -3.0821999999999999e-01 -2.4357000000000002e+00 0.0000000000000000e+00 0.0000000000000000e+00 3.4300000000000003e-01
 Feature   EFS_by	VASP
END_CFG

BEGIN_CFG
 Size
    4
 Supercell
    2.2186855660000000e+00 2.2186855660000000e+00 0.0000000000000000e+00
    -2.2186855660000000e+00 2.2186855660000000e+00 4.4373711309999999e+00
    2.2186855660000000e+00 -2.2186855660000000e+00 4.4373711309999999e+00
 AtomData:  id type       cartes_x      cartes_y      cartes_z           fx          fy          fz
    1 0  0.0000000000000000e+00 0.0000000000000000e+00 0.0000000000000000e+00  0.0000000000000000e+00 0.0000000000000000e+00 0.0000000000000000e+00
    2 0  0.0000000000000000e+00 2.2186900000000001e+00 2.2186900000000001e+00  0.0000000000000000e+00 0.0000000000000000e+00 0.0000000000000000e+00
    3 0  2.2186900000000001e+00 0.0000000000000000e+00 2.2186900000000001e+00  -0.0000000000000000e+00 0.0000000000000000e+00 -0.0000000000000000e+00
    4 2  0.0000000000000000e+00 0.0000000000000000e+00 4.4373699999999996e+00  -0.0000000000000000e+00 -0.0000000000000000e+00 0.0000000000000000e+00
 Energy
    -3.7316706390000000e+01
 PlusStress:  xx          yy          zz          yz          xz          xy
     1.0311389999999999e+01 1.0311389999999999e+01 8.5123400000000000e+00 -0.0000000000000000e+00 0.0000000000000000e+00 1.8184400000000001e+00
 Feature   EFS_by	VASP
END_CFG

BEGIN_CFG
 Size
    4
 Supercell
    2.0929655920000001e+00 2.0929655920000001e+00 0.0000000000000000e+00
    -2.0929655920000001e+00 2.0929655920000001e+00 4.1859311830000001e+00
    2.0929655920000001e+00 -2.0929655920000001e+00 4.1859311830000001e+00
 AtomData:  id type       cartes_x      cartes_y      cartes_z           fx          fy          fz
    1 0  0.0000000000000000e+00 0.0000000000000000e+00 0.0000000000000000e+00  0.0000000000000000e+00 0.0000000000000000e+00 -0.0000000000000000e+00
    2 0  0.0000000000000000e+00 2.0929700000000002e+00 2.0929700000000002e+00  0.0000000000000000e+00 0.0000000000000000e+00 -0.0000000000000000e+00
    3 1  2.0929700000000002e+00 0.0000000000000000e+00 2.0929700000000002e+00  -0.0000000000000000e+00 -0.0000000000000000e+00 0.0000000000000000e+00
    4 2  0.0000000000000000e+00 0.0000000000000000e+00 4.1859299999999999e+00  0.0000000000000000e+00 0.0000000000000000e+00 0.0000000000000000e+00
 Energy
    -3.2577359299999998e+01
 PlusStress:  xx          yy          zz          yz          xz          xy
     -1.8747400000000001e+00 -1.8747400000000001e+00 -3.1492599999999999e+00 9.5962000000000003e-01 -9.5962000000000003e-01 6.4597000000000004e-01
 Feature   EFS_by	VASP
END_CFG

BEGIN_CFG
 Size
    4
 Supercell
    1.8857225570000000e+00 1.8857225570000000e+00 0.0000000000000000e+00
    -1.8857225570000000e+00 1.8857225570000000e+00 3.7714451130000000e+00
    1.8857225570000000e+00 -1.8857225570000000e+00 3.7714451130000000e+00
 AtomData:  id type       cartes_x      cartes_y      cartes_z           fx          fy          fz
    1 0  0.0000000000000000e+00 0.0000000000000000e+00 0.0000000000000000e+00  -0.0000000000000000e+00 0.0000000000000000e+00 0.0000000000000000e+00
    2 1  0.0000000000000000e+00 1.8857200000000001e+00 1.8857200000000001e+00  -0.0000000000000000e+00 0.0000000000000000e+00 -0.0000000000000000e+00
    3 1  1.8857200000000001e+00 0.0000000000000000e+00 1.8857200000000001e+00  0.0000000000000000e+00 -0.0000000000000000e+00 0.0000000000000000e+00
    4 1  0.0000000000000000e+00 0.0000000000000000e+00 3.7714500000000002e+00  0.0000000000000000e+00 0.0000000000000000e+00 0.0000000000000000e+00
 Energy
    -2.6818886719999998e+01
 PlusStress:  xx          yy          zz          yz          xz          xy
     -2.7229000000000001e+00 -2.7229000000000001e+00 -5.5781200000000002e+00 0.0000000000000000e+00 0.0000000000000000e+00 3.1982599999999999e+00
 Feature   EFS_by	VASP
END_CFG

BEGIN_CFG
 Size
    3
 Supercell
    2.0952558469999998e+00 2.0952558469999998e+00 0.0000000000000000e+00
    -2.0952558469999998e+00 4.1905116930000004e+00 2.0952558469999998e+00
    0.0000000000000000e+00 0.0000000000000000e+00 4.1905116930000004e+00
 AtomData:  id type       cartes_x      cartes_y      cartes_z           fx          fy          fz
    1 0  0.0000000000000000e+00 0.0000000000000000e+00 0.0000000000000000e+00  8.6848099999999995e-01 -8.6848099999999995e-01 -0.0000000000000000e+00
    2 0  -0.0000000000000000e+00 2.0952600000000001e+00 2.0952600000000001e+00  -8.6848099999999995e-01 8.6848099999999995e-01 0.0000000000000000e+00
    3 1  0.0000000000000000e+00 4.1905099999999997e+00 4.1905099999999997e+00  -0.0000000000000000e+00 0.0000000000000000e+00 -0.0000000000000000e+00
 Energy
    -2.5087250470000001e+01
 PlusStress:  xx          yy          zz          yz          xz          xy
     -1.8617500000000000e+00 -1.8617500000000000e+00 -5.5447899999999999e+00 -0.0000000000000000e+00 0.0000000000000000e+00 9.9300999999999995e-01
 Feature   EFS_by	VASP
END_CFG

BEGIN_CFG
 Size
    4
 Supercell
    1.9672456180000000e+00 1.9672456180000000e+00 0.0000000000000000e+00
    -1.9672456180000000e+00 1.9672456180000000e+00 3.9344912349999999e+00
    1.9672456180000000e+00 -1.9672456180000000e+00 3.9344912349999999e+00
 AtomData:  id type       cartes_x      cartes_y      cartes_z           fx          fy          fz
    1 0  0.0000000000000000e+00 0.0000000000000000e+00 0.0000000000000000e+00  0.0000000000000000e+00 0.0000000000000000e+00 0.0000000000000000e+00
    2 1  0.0000000000000000e+00 1.9672499999999999e+00 1.9672499999999999e+00  -0.0000000000000000e+00 -0.0000000000000000e+00 -0.0000000000000000e+00
    3 1  1.9672499999999999e+00 0.0000000000000000e+00 1.9672499999999999e+00  0.0000000000000000e+00 0.0000000000000000e+00 0.0000000000000000e+00
    4 2  0.0000000000000000e+00 0.0000000000000000e+00 3.9344899999999998e+00  0.0000000000000000e+00 0.0000000000000000e+00 0.0000000000000000e+00
 Energy
    -2.9639798429999999e+01
 PlusStress:  xx          yy          zz          yz          xz          xy
     -2.9260600000000001e+00 -2.9260600000000001e+00 -7.4833699999999999e+00 -0.0000000000000000e+00 0.0000000000000000e+00 3.6670000000000003e-01
 Feature   EFS_by	VASP
END_CFG

BEGIN_CFG
 Size
    4
 Supercell
    2.0929655920000001e+00 2.0929655920000001e+00 0.0000000000000000e+00
    -2.0929655920000001e+00 2.0929655920000001e+00 4.1859311830000001e+00
    2.0929655920000001e+00 -2.0929655920000001e+00 4.1859311830000001e+00
 AtomData:  id type       cartes_x      cartes_y      cartes_z           fx          fy          fz
    1 0  0.0000000000000000e+00 0.0000000000000000e+00 0.0000000000000000e+00  -0.0000000000000000e+00 -0.0000000000000000e+00 0.0000000000000000e+00
    2 0  0.0000000000000000e+00 0.0000000000000000e+00 4.1859299999999999e+00  -0.0000000000000000e+00 -0.0000000000000000e+00 0.0000000000000000e+00
    3 1  0.0000000000000000e+00 2.0929700000000002e+00 2.0929700000000002e+00  0.0000000000000000e+00 0.0000000000000000e+00 0.0000000000000000e+00
    4 2  2.0929700000000002e+00 0.0000000000000000e+00 2.0929700000000002e+00  -0.0000000000000000e+00 0.0000000000000000e+00 -0.0000000000000000e+00
 Energy
    -3.2905269429999997e+01
 PlusStress:  xx          yy          zz          yz          xz          xy
     -6.4237999999999995e-01 -6.4237999999999995e-01 -4.1855900000000004e+00 0.0000000000000000e+00 0.0000000000000000e+00 -1.8015999999999999e-01
 Feature   EFS_by	VASP
END_CFG

BEGIN_CFG
 Size
    4
 Supercell
    1.9672456180000000e+00 1.9672456180000000e+00 0.0000000000000000e+00
    -1.9672456180000000e+00 1.9672456180000000e+00 3.9344912349999999e+00
    1.9672456180000000e+00 -1.9672456180000000e+00 3.9344912349999999e+00
 AtomData:  id type       cartes_x      cartes_y      cartes_z           fx          fy          fz
    1 0  0.0000000000000000e+00 0.0000000000000000e+00 0.0000000000000000e+00  -0.0000000000000000e+00 -0.0000000000000000e+00 -0.0000000000000000e+00
    2 1  0.0000000000000000e+00 1.9672499999999999e+00 1.9672499999999999e+00  0.0000000000000000e+00 0.0000000000000000e+00 0.0000000000000000e+00
    3 1  0.0000000000000000e+00 0.0000000000000000e+00 3.9344899999999998e+00  -0.0000000000000000e+00 -0.0000000000000000e+00 -0.0000000000000000e+00
    4 2  1.9672499999999999e+00 0.0000000000000000e+00 1.9672499999999999e+00  -0.0000000000000000e+00 -0.0000000000000000e+00 0.0000000000000000e+00
 Energy
    -2.8517313569999999e+01
 PlusStress:  xx          yy          zz          yz          xz          xy
     -1.0144100000000000e+00 -1.0144100000000000e+00 -1.4382699999999999e+00 -2.1509999999999998e+00 2.1509999999999998e+00 2.4931899999999998e+00
 Feature   EFS_by	VASP
END_CFG

BEGIN_CFG
 Size
    4
 Supercell
    2.0487686790000001e+00 2.0487686790000001e+00 0.0000000000000000e+00
    -2.0487686790000001e+00 2.0487686790000001e+00 4.0975373570000002e+00
    2.0487686790000001e+00 -2.0487686790000001e+00 4.0975373570000002e+00
 AtomData:  id type       cartes_x      cartes_y      cartes_z           fx          fy          fz
    1 0  0.0000000000000000e+00 0.0000000000000000e+00 0.0000000000000000e+00  0.0000000000000000e+00 -0.0000000000000000e+00 0.0000000000000000e+00
    2 1  2.0487700000000002e+00 0.0000000000000000e+00 6.1463099999999997e+00  0.0000000000000000e+00 -0.0000000000000000e+00 -0.0000000000000000e+00
    3 2  -0.0000000000000000e+00 2.0487700000000002e+00 6.1463099999999997e+00  -0.0000000000000000e+00 0.0000000000000000e+00 -0.0000000000000000e+00
    4 2  0.0000000000000000e+00 0.0000000000000000e+00 4.0975400000000004e+00  -0.0000000000000000e+00 0.0000000000000000e+00 0.0000000000000000e+00
 Energy
    -3.0821956490000002e+01
 PlusStress:  xx          yy          zz          yz          xz          xy
     -1.3038700000000001e+00 -1.3038700000000001e+00 -3.5032299999999998e+00 -6.4388000000000001e-01 6.4388000000000001e-01 -4.9750000000000003e-02
 Feature   EFS_by	VASP
END_CFG

BEGIN_CFG
 Size
    4
 Supercell
    2.0487686790000001e+00 2.0487686790000001e+00 0.0000000000000000e+00
    -2.0487686790000001e+00 2.0487686790000001e+00 4.0975373570000002e+00
    2.0487686790000001e+00 -2.0487686790000001e+00 4.0975373570000002e+00
 AtomData:  id type       cartes_x      cartes_y      cartes_z           fx          fy          fz
    1 0  0.0000000000000000e+00 0.0000000000000000e+00 0.0000000000000000e+00  -0.0000000000000000e+00 0.0000000000000000e+00 -0.0000000000000000e+00
    2 1  0.0000000000000000e+00 0.0000000000000000e+00 4.0975400000000004e+00  -0.0000000000000000e+00 -0.0000000000000000e+00 -0.0000000000000000e+00
    3 2  2.0487700000000002e+00 0.0000000000000000e+00 6.1463099999999997e+00  -0.0000000000000000e+00 -0.0000000000000000e+00 0.0000000000000000e+00
    4 2  -0.0000000000000000e+00 2.0487700000000002e+00 6.1463099999999997e+00  0.0000000000000000e+00 0.0000000000000000e+00 0.0000000000000000e+00
 Energy
    -3.0560239450000001e+01
 PlusStress:  xx          yy          zz          yz          xz          xy
     -1.9061100000000000e+00 -1.9061100000000000e+00 -2.6686100000000001e+00 -0.0000000000000000e+00 -0.0000000000000000e+00 5.2122000000000002e-01
 Feature   EFS_by	VASP
END_CFG

BEGIN_CFG
 Size
    4
 Supercell
    2.1302917400000001e+00 2.1302917400000001e+00 0.0000000000000000e+00
    -2.1302917400000001e+00 2.1302917400000001e+00 4.2605834800000002e+00
    2.1302917400000001e+00 -2.1302917400000001e+00 4.2605834800000002e+00
 AtomData:  id type       cartes_x      cartes_y      cartes_z           fx          fy          fz
    1 0  0.0000000000000000e+00 0.0000000000000000e+00 0.0000000000000000e+00  0.0000000000000000e+00 -0.0000000000000000e+00 -0.0000000000000000e+00
    2 2  0.0000000000000000e+00 2.1302900000000000e+00 2.1302900000000000e+00  -0.0000000000000000e+00 0.0000000000000000e+00 0.0000000000000000e+00
    3 2  2.1302900000000000e+00 0.0000000000000000e+00 2.1302900000000000e+00  -0.0000000000000000e+00 -0.0000000000000000e+00 0.0000000000000000e+00
    4 2  0.0000000000000000e+00 0.0000000000000000e+00 4.2605800000000000e+00  0.0000000000000000e+00 0.0000000000000000e+00 -0.0000000000000000e+00
 Energy
    -3.2981255730000001e+01
 PlusStress:  xx          yy          zz          yz          xz          xy
     -1.8595600000000001e+00 -1.8595600000000001e+00 -2.0496500000000002e+00 0.0000000000000000e+00 -0.0000000000000000e+00 2.0433999999999999e-01
 Feature   EFS_by	VASP
END_CFG

BEGIN_CFG
 Size
    4
 Supercell
    1.8415256440000001e+00 1.8415256440000001e+00 0.0000000000000000e+00
    -1.8415256440000001e+00 1.8415256440000001e+00 3.6830512870000001e+00
    1.8415256440000001e+00 -1.8415256440000001e+00 3.6830512870000001e+00
 AtomData:  id type       cartes_x      cartes_y      cartes_z           fx          fy          fz
    1 1  0.0000000000000000e+00 0.0000000000000000e+00 0.0000000000000000e+00  0.0000000000000000e+00 -0.0000000000000000e+00 -0.0000000000000000e+00
    2 1  0.0000000000000000e+00 1.8415299999999999e+00 1.8415299999999999e+00  -0.0000000000000000e+00 -0.0000000000000000e+00 -0.0000000000000000e+00
    3 1  1.8415299999999999e+00 -0.0000000000000000e+00 1.8415299999999999e+00  0.0000000000000000e+00 0.0000000000000000e+00 0.0000000000000000e+00
    4 2  0.0000000000000000e+00 0.0000000000000000e+00 3.6830500000000002e+00  0.0000000000000000e+00 -0.0000000000000000e+00 0.0000000000000000e+00
 Energy
    -2.5049447010000002e+01
 PlusStress:  xx          yy          zz          yz          xz          xy
     -4.8201099999999997e+00 -4.8201099999999997e+00 -5.9019700000000004e+00 -0.0000000000000000e+00 0.0000000000000000e+00 1.4408300000000001e+00
 Feature   EFS_by	VASP
END_CFG

BEGIN_CFG
 Size
    4
 Supercell
    2.0045717660000002e+00 2.0045717660000002e+00 0.0000000000000000e+00
    -2.0045717660000002e+00 2.0045717660000002e+00 4.0091435320000004e+00
    2.0045717660000002e+00 -2.0045717660000002e+00 4.0091435320000004e+00
 AtomData:  id type       cartes_x      cartes_y      cartes_z           fx          fy          fz
    1 1  0.0000000000000000e+00 0.0000000000000000e+00 0.0000000000000000e+00  -0.0000000000000000e+00 -0.0000000000000000e+00 -0.0000000000000000e+00
    2 2  0.0000000000000000e+00 2.0045700000000002e+00 2.0045700000000002e+00  -0.0000000000000000e+00 0.0000000000000000e+00 -0.0000000000000000e+00
    3 2  2.0045700000000002e+00 0.0000000000000000e+00 2.0045700000000002e+00  0.0000000000000000e+00 0.0000000000000000e+00 0.0000000000000000e+00
    4 2  0.0000000000000000e+00 0.0000000000000000e+00 4.0091400000000004e+00  -0.0000000000000000e+00 -0.0000000000000000e+00 -0.0000000000000000e+00
 Energy
    -2.8873736749999999e+01
 PlusStress:  xx          yy          zz          yz          xz          xy
     -3.0855500000000000e+00 -3.0855500000000000e+00 -4.2453099999999999e+00 0.0000000000000000e+00 -0.0000000000000000e+00 -2.9796000000000000e-01
 Feature   EFS_by	VASP
END_CFG

BEGIN_CFG
 Size
    4
 Supercell
    0.0000000000000000e+00 4.2743250090000000e+00 0.0000000000000000e+00
    -4.2743250090000000e+00 0.0000000000000000e+00 0.0000000000000000e+00
    0.0000000000000000e+00 0.0000000000000000e+00 4.2743250090000000e+00
 AtomData:  id type       cartes_x      cartes_y      cartes_z           fx          fy          fz
    1 0  0.0000000000000000e+00 0.0000000000000000e+00 0.0000000000000000e+00  -0.0000000000000000e+00 0.0000000000000000e+00 -0.0000000000000000e+00
    2 0  0.0000000000000000e+00 2.1371600000000002e+00 2.1371600000000002e+00  0.0000000000000000e+00 0.0000000000000000e+00 -0.0000000000000000e+00
    3 0  -2.1371600000000002e+00 0.0000000000000000e+00 2.1371600000000002e+00  -0.0000000000000000e+00 0.0000000000000000e+00 -0.0000000000000000e+00
    4 1  -2.1371600000000002e+00 2.1371600000000002e+00 0.0000000000000000e+00  0.0000000000000000e+00 -0.0000000000000000e+00 0.0000000000000000e+00
 Energy
    -3.5074194609999999e+01
 PlusStress:  xx          yy          zz          yz          xz          xy
     -2.9623800000000000e+00 -2.9623800000000000e+00 -2.9623800000000000e+00 -0.0000000000000000e+00 -0.0000000000000000e+00 0.0000000000000000e+00
 Feature   EFS_by	VASP
END_CFG

BEGIN_CFG
 Size
    4
 Supercell
    0.0000000000000000e+00 4.4373711309999999e+00 0.0000000000000000e+00
    -4.4373711309999999e+00 0.0000000000000000e+00 0.0000000000000000e+00
    0.0000000000000000e+00 0.0000000000000000e+00 4.4373711309999999e+00
 AtomData:  id type       cartes_x      cartes_y      cartes_z           fx          fy          fz
    1 0  0.0000000000000000e+00 0.0000000000000000e+00 0.0000000000000000e+00  -0.0000000000000000e+00 -0.0000000000000000e+00 0.0000000000000000e+00
    2 0  0.0000000000000000e+00 2.2186900000000001e+00 2.2186900000000001e+00  0.0000000000000000e+00 0.0000000000000000e+00 -0.0000000000000000e+00
    3 0  -2.2186900000000001e+00 0.0000000000000000e+00 2.2186900000000001e+00  0.0000000000000000e+00 -0.0000000000000000e+00 -0.0000000000000000e+00
    4 2  -2.2186900000000001e+00 2.2186900000000001e+00 0.0000000000000000e+00  0.0000000000000000e+00 -0.0000000000000000e+00 0.0000000000000000e+00
 Energy
    -3.7206696540000003e+01
 PlusStress:  xx          yy          zz          yz          xz          xy
     -1.4779199999999999e+00 -1.4779199999999999e+00 -1.4779199999999999e+00 0.0000000000000000e+00 0.0000000000000000e+00 -0.0000000000000000e+00
 Feature   EFS_by	VASP
END_CFG

BEGIN_CFG
 Size
    3
 Supercell
    2.0952558469999998e+00 2.0952558469999998e+00 0.0000000000000000e+00
    -2.0952558469999998e+00 2.0952558469999998e+00 0.0000000000000000e+00
    0.0000000000000000e+00 2.0952558469999998e+00 6.2857675400000002e+00
 AtomData:  id type       cartes_x      cartes_y      cartes_z           fx          fy          fz
    1 0  0.0000000000000000e+00 0.0000000000000000e+00 0.0000000000000000e+00  0.0000000000000000e+00 0.0000000000000000e+00 -2.1811389999999999e+00
    2 0  0.0000000000000000e+00 2.0952600000000001e+00 2.0952600000000001e+00  -0.0000000000000000e+00 -0.0000000000000000e+00 2.1811389999999999e+00
    3 1  0.0000000000000000e+00 4.1905099999999997e+00 4.1905099999999997e+00  0.0000000000000000e+00 0.0000000000000000e+00 -0.0000000000000000e+00
 Energy
    -2.5453758300000001e+01
 PlusStress:  xx          yy          zz          yz          xz          xy
     1.3304499999999999e+00 1.3304499999999999e+00 -3.7196799999999999e+00 0.0000000000000000e+00 0.0000000000000000e+00 0.0000000000000000e+00
 Feature   EFS_by	VASP
END_CFG

BEGIN_CFG
 Size
    4
 Supercell
    0.0000000000000000e+00 4.1859311830000001e+00 0.0000000000000000e+00
    -4.1859311830000001e+00 0.0000000000000000e+00 0.0000000000000000e+00
    0.0000000000000000e+00 0.0000000000000000e+00 4.1859311830000001e+00
 AtomData:  id type       cartes_x      cartes_y      cartes_z           fx          fy          fz
    1 0  0.0000000000000000e+00 0.0000000000000000e+00 0.0000000000000000e+00  0.0000000000000000e+00 0.0000000000000000e+00 0.0000000000000000e+00
    2 0  0.0000000000000000e+00 2.0929700000000002e+00 2.0929700000000002e+00  0.0000000000000000e+00 -0.0000000000000000e+00 -0.0000000000000000e+00
    3 1  -2.0929700000000002e+00 0.0000000000000000e+00 2.0929700000000002e+00  -0.0000000000000000e+00 -0.0000000000000000e+00 0.0000000000000000e+00
    4 2  -2.0929700000000002e+00 2.0929700000000002e+00 0.0000000000000000e+00  -0.0000000000000000e+00 0.0000000000000000e+00 0.0000000000000000e+00
 Energy
    -3.3078530610000001e+01