BEGIN_CFG
Size
   6
SuperCell
       10.159308      0.000000     -0.000000
        0.000000      3.002109      0.000000
       -0.000000      0.000000      3.002109
AtomData:  id type       cartes_x      cartes_y      cartes_z           fx          fy          fz
		    1    0       8.378155      1.501054      1.501054     0.000355    0.000000   -0.000000
		    2    1       1.811687      1.501054      1.501054     0.000579   -0.000000   -0.000000
		    3    1       6.548257      0.000000      3.002109    -0.000493   -0.000000    0.000000
		    4    2       0.251277      0.000000      0.000000    -0.000683    0.000000   -0.000000
		    5    2       3.314537      0.000000      3.002109    -0.000631   -0.000000    0.000000
		    6    2       5.094358      1.501054      1.501054     0.000872    0.000000   -0.000000
Energy
	   -46.108780221702915
PlusStress:  xx          yy          zz          yz          xz          xy
        0.00080    -0.00077    -0.00077    -0.00000     0.00000     0.00000
Feature   mindist 2.573
END_CFG

BEGIN_CFG
Size
   6
SuperCell
       10.159308      0.000000      0.000000
        0.000000      3.002109     -0.000000
        0.000000      0.000000      3.002109
AtomData:  id type       cartes_x      cartes_y      cartes_z           fx          fy          fz
		    1    0       3.474371      0.000000      0.000000    -0.000355   -0.000000   -0.000000
		    2    1      10.040840      0.000000      0.000000    -0.000579   -0.000000   -0.000000
		    3    1       5.304269      1.501054      1.501054     0.000493    0.000000    0.000000
		    4    2       1.441941      1.501054      1.501054     0.000683   -0.000000   -0.000000
		    5    2       6.758168      0.000000      0.000000    -0.000872   -0.000000   -0.000000
		    6    2       8.537989      1.501054      1.501054     0.000631    0.000000    0.000000
Energy
	   -46.1087802217029
PlusStress:  xx          yy          zz          yz          xz          xy
        0.00080    -0.00077    -0.00077    -0.00000     0.00000    -0.00000
Feature   mindist 2.573
END_CFG

BEGIN_CFG
Size
   6
SuperCell
        9.403991     -0.000000     -0.000000
        0.000000      3.001469     -0.000000
       -0.000000      0.000000      3.001469
AtomData:  id type       cartes_x      cartes_y      cartes_z           fx          fy          fz
		    1    0       3.134664      0.000000      0.000000     0.000000   -0.000000   -0.000000
		    2    1       1.245647      1.500734      1.500734    -0.000004    0.000000    0.000000
		    3    1       5.023680      1.500734      1.500734     0.000004    0.000000   -0.000000
		    4    1       7.836659      1.500734      1.500734    -0.000000   -0.000000    0.000000
		    5    2       9.302350      3.001469      0.000000     0.000009    0.000000   -0.000000
		    6    2       6.370968      0.000000      3.001469    -0.000009   -0.000000    0.000000
Energy
	   -44.38808914396934
PlusStress:  xx          yy          zz          yz          xz          xy
       -0.00008     0.00025     0.00025    -0.00000    -0.00000     0.00000
Feature   mindist 2.514
END_CFG

BEGIN_CFG
Size
   6
SuperCell
       11.977181     -0.000000      0.000000
        0.000000      3.176740      0.000000
       -0.000000      0.000000      3.176740
AtomData:  id type       cartes_x      cartes_y      cartes_z           fx          fy          fz
		    1    0      11.588751      0.000000      0.000000    -0.000048   -0.000000   -0.000000
		    2    0       1.747263      1.588370      1.588370     0.000779    0.000000   -0.000000
		    3    0       3.992394      0.000000      3.176740    -0.000000   -0.000000    0.000000
		    4    0       6.237524      1.588370      1.588370    -0.000779    0.000000   -0.000000
		    5    0       8.373217      0.000000      0.000000     0.000048   -0.000000    0.000000
		    6    1       9.980984      1.588370      1.588370    -0.000000    0.000000   -0.000000
Energy
	   -55.84548041436977
PlusStress:  xx          yy          zz          yz          xz          xy
       -0.00067     0.00005     0.00005    -0.00000    -0.00000     0.00000
Feature   mindist 2.762
END_CFG

BEGIN_CFG
Size
   6
SuperCell
       10.159308      0.000000      0.000000
        0.000000      3.002109     -0.000000
        0.000000      0.000000      3.002109
AtomData:  id type       cartes_x      cartes_y      cartes_z           fx          fy          fz
		    1    0      10.071373      3.002109      0.000000     0.000355    0.000000   -0.000000
		    2    1       3.504905      3.002109      0.000000     0.000579    0.000000    0.000000
		    3    1       8.241475      1.501054      1.501054    -0.000493   -0.000000   -0.000000
		    4    2       1.944495      1.501054      1.501054    -0.000683    0.000000    0.000000
		    5    2       5.007755      1.501054      1.501054    -0.000631   -0.000000    0.000000
		    6    2       6.787576      3.002109     -0.000000     0.000872    0.000000    0.000000
Energy
	   -46.108780221702894
PlusStress:  xx          yy          zz          yz          xz          xy
        0.00080    -0.00077    -0.00077    -0.00000     0.00000    -0.00000
Feature   mindist 2.573
END_CFG

BEGIN_CFG
Size
   6
SuperCell
        8.921272     -0.000000     -0.000000
       -0.000000      2.973757      0.000000
        0.000000      0.000000      2.973757
AtomData:  id type       cartes_x      cartes_y      cartes_z           fx          fy          fz
		    1    1       8.921272      0.000000      0.000000     0.000000    0.000000   -0.000000
		    2    1       2.973757      0.000000      0.000000     0.000000   -0.000000    0.000000
		    3    1       5.947515      0.000000      0.000000     0.000000    0.000000   -0.000000
		    4    2       1.486879      1.486879      1.486879    -0.000000    0.000000    0.000000
		    5    2       4.460636      1.486879      1.486879     0.000000   -0.000000   -0.000000
		    6    2       7.434394      1.486879      1.486879    -0.000000   -0.000000    0.000000
Energy
	   -42.11064776236654
PlusStress:  xx          yy          zz          yz          xz          xy
        0.00029     0.00029     0.00029     0.00000    -0.00000    -0.00000
Feature   mindist 2.575
END_CFG

BEGIN_CFG
Size
   6
SuperCell
       11.977181      0.000000     -0.000000
       -0.000000      3.176740      0.000000
       -0.000000      0.000000      3.176740
AtomData:  id type       cartes_x      cartes_y      cartes_z           fx          fy          fz
		    1    0       1.607767      1.588370      1.588370    -0.000048   -0.000000   -0.000000
		    2    0       3.743460      3.176740      0.000000     0.000779    0.000000   -0.000000
		    3    0       5.988590      1.588370      1.588370    -0.000000    0.000000    0.000000
		    4    0       8.233721      3.176740      0.000000    -0.000779    0.000000   -0.000000
		    5    0      10.369414      1.588370      1.588370     0.000048   -0.000000    0.000000
		    6    1       0.000000      0.000000      3.176740    -0.000000   -0.000000    0.000000
Energy
	   -55.845480414369774
PlusStress:  xx          yy          zz          yz          xz          xy
       -0.00067     0.00005     0.00005     0.00000    -0.00000    -0.00000
Feature   mindist 2.762
END_CFG

BEGIN_CFG
Size
   6
SuperCell
        8.921272      0.000000     -0.000000
        0.000000      2.973757     -0.000000
        0.000000     -0.000000      2.973757
AtomData:  id type       cartes_x      cartes_y      cartes_z           fx          fy          fz
		    1    1       1.486879      1.486879      1.486879     0.000000    0.000000   -0.000000
		    2    1       4.460636      1.486879      1.486879     0.000000   -0.000000   -0.000000
		    3    1       7.434394      1.486879      1.486879     0.000000   -0.000000   -0.000000
		    4    2       8.921272      0.000000      0.000000     0.000000   -0.000000   -0.000000
		    5    2       2.973757      0.000000      0.000000    -0.000000   -0.000000    0.000000
		    6    2       5.947515      0.000000      0.000000    -0.000000    0.000000    0.000000
Energy
	   -42.11064776236653
PlusStress:  xx          yy          zz          yz          xz          xy
        0.00029     0.00029     0.00029    -0.00000     0.00000     0.00000
Feature   mindist 2.575
END_CFG

BEGIN_CFG
Size
   6
SuperCell
        9.403991     -0.000000     -0.000000
       -0.000000      3.001469     -0.000000
       -0.000000     -0.000000      3.001469
AtomData:  id type       cartes_x      cartes_y      cartes_z           fx          fy          fz
		    1    0       9.403991     -0.000000      0.000000     0.000000   -0.000000   -0.000000
		    2    1       1.889016      1.500734      1.500734     0.000004   -0.000000    0.000000
		    3    1       4.701995      1.500734      1.500734     0.000000   -0.000000    0.000000
		    4    1       7.514974      1.500734      1.500734    -0.000004    0.000000    0.000000
		    5    2       3.236304      3.001469      0.000000    -0.000009    0.000000   -0.000000
		    6    2       6.167686      0.000000      0.000000     0.000009   -0.000000    0.000000
Energy
	   -44.388089143969324
PlusStress:  xx          yy          zz          yz          xz          xy
       -0.00008     0.00025     0.00025     0.00000     0.00000     0.00000
Feature   mindist 2.514
END_CFG

BEGIN_CFG
Size
   6
SuperCell
       10.585865     -0.000000     -0.000000
       -0.000000      3.177775     -0.000000
       -0.000000     -0.000000      3.177775
AtomData:  id type       cartes_x      cartes_y      cartes_z           fx          fy          fz
		    1    0       0.149607      3.177775      3.177775     0.000022    0.000000    0.000000
		    2    0       3.379015      3.177775      3.177775    -0.000022    0.000000    0.000000
		    3    0       5.442539      1.588887      1.588887     0.000022   -0.000000   -0.000000
		    4    0       8.671948      1.588887      1.588887    -0.000022   -0.000000    0.000000
		    5    1       1.764311      1.588887      1.588887    -0.000000   -0.000000   -0.000000
		    6    1       7.057243      3.177775      0.000000     0.000000    0.000000    0.000000
Energy
	   -52.434435247369876
PlusStress:  xx          yy          zz          yz          xz          xy
       -0.00116     0.00112     0.00112     0.00000    -0.00000     0.00000
Feature   mindist 2.767
END_CFG

BEGIN_CFG
Size
   6
SuperCell
       10.159308      0.000000     -0.000000
        0.000000      3.002109     -0.000000
       -0.000000     -0.000000      3.002109
AtomData:  id type       cartes_x      cartes_y      cartes_z           fx          fy          fz
		    1    0       5.167589      1.501054      1.501054    -0.000355   -0.000000    0.000000
		    2    1       1.574749      1.501054      1.501054    -0.000579   -0.000000   -0.000000
		    3    1       6.997487      3.002109      0.000000     0.000493    0.000000   -0.000000
		    4    2       0.071899      3.002109      0.000000     0.000631    0.000000    0.000000
		    5    2       3.135159      0.000000      3.002109     0.000683   -0.000000    0.000000
		    6    2       8.451386      1.501054      1.501054    -0.000872   -0.000000    0.000000
Energy
	   -46.10878022170291
PlusStress:  xx          yy          zz          yz          xz          xy
        0.00080    -0.00077    -0.00077    -0.00000    -0.00000     0.00000
Feature   mindist 2.573
END_CFG

BEGIN_CFG
Size
   6
SuperCell
       10.585865      0.000000     -0.000000
        0.000000      3.177775      0.000000
       -0.000000      0.000000      3.177775
AtomData:  id type       cartes_x      cartes_y      cartes_z           fx          fy          fz
		    1    0      10.436259      3.177775      0.000000    -0.000022    0.000000   -0.000000
		    2    0       1.913917      1.588887      1.588887     0.000022   -0.000000   -0.000000
		    3    0       5.143326      1.588887      1.588887    -0.000022   -0.000000   -0.000000
		    4    0       7.206850      3.177775      0.000000     0.000022    0.000000    0.000000
		    5    1       3.528622      3.177775      3.177775    -0.000000    0.000000    0.000000
		    6    1       8.821554      1.588887      1.588887     0.000000   -0.000000    0.000000
Energy
	   -52.4344352473699
PlusStress:  xx          yy          zz          yz          xz          xy
       -0.00116     0.00112     0.00112     0.00000    -0.00000    -0.00000
Feature   mindist 2.767
END_CFG

BEGIN_CFG
Size
   6
SuperCell
       10.159308     -0.000000     -0.000000
       -0.000000      3.002109     -0.000000
       -0.000000      0.000000      3.002109
AtomData:  id type       cartes_x      cartes_y      cartes_z           fx          fy          fz
		    1    0       3.298501      0.000000      0.000000     0.000355   -0.000000   -0.000000
		    2    1       1.468603      1.501054      1.501054    -0.000493    0.000000    0.000000
		    3    1       6.891341     -0.000000      0.000000     0.000579   -0.000000   -0.000000
		    4    2       0.014704      0.000000      0.000000     0.000872   -0.000000   -0.000000
		    5    2       5.330931      1.501054      1.501054    -0.000683   -0.000000   -0.000000
		    6    2       8.394191      1.501054      1.501054    -0.000631    0.000000    0.000000
Energy
	   -46.10878022170293
PlusStress:  xx          yy          zz          yz          xz          xy
        0.00080    -0.00077    -0.00077     0.00000    -0.00000     0.00000
Feature   mindist 2.573
END_CFG

BEGIN_CFG
Size
   6
SuperCell
       10.159308      0.000000      0.000000
        0.000000      3.002109     -0.000000
        0.000000      0.000000      3.002109
AtomData:  id type       cartes_x      cartes_y      cartes_z           fx          fy          fz
		    1    0       3.474371      0.000000      0.000000    -0.000355   -0.000000   -0.000000
		    2    1      10.040840      0.000000      0.000000    -0.000579   -0.000000   -0.000000
		    3    1       5.304269      1.501054      1.501054     0.000493    0.000000    0.000000
		    4    2       1.441941      1.501054      1.501054     0.000683   -0.000000   -0.000000
		    5    2       6.758168      0.000000      0.000000    -0.000872   -0.000000   -0.000000
		    6    2       8.537989      1.501054      1.501054     0.000631    0.000000    0.000000
Energy
	   -46.1087802217029
PlusStress:  xx          yy          zz          yz          xz          xy
        0.00080    -0.00077    -0.00077    -0.00000     0.00000    -0.00000
Feature   mindist 2.573
END_CFG

BEGIN_CFG
Size
   6
SuperCell
       11.977181     -0.000000      0.000000
        0.000000      3.176740     -0.000000
       -0.000000      0.000000      3.176740
AtomData:  id type       cartes_x      cartes_y      cartes_z           fx          fy          fz
		    1    0      11.728247      0.000000      0.000000     0.000779    0.000000   -0.000000
		    2    0       1.996197      1.588370      1.588370     0.000000    0.000000    0.000000
		    3    0       4.241327      0.000000      3.176740    -0.000779    0.000000   -0.000000
		    4    0       6.377020      1.588370      1.588370     0.000048   -0.000000    0.000000
		    5    0       9.592554      1.588370      1.588370    -0.000048   -0.000000    0.000000
		    6    1       7.984787     -0.000000      0.000000     0.000000    0.000000   -0.000000
Energy
	   -55.84548041436976
PlusStress:  xx          yy          zz          yz          xz          xy
       -0.00067     0.00005     0.00005    -0.00000    -0.00000     0.00000
Feature   mindist 2.762
END_CFG

BEGIN_CFG
Size
   6
SuperCell
        9.403991     -0.000000      0.000000
       -0.000000      3.001469      0.000000
        0.000000      0.000000      3.001469
AtomData:  id type       cartes_x      cartes_y      cartes_z           fx          fy          fz
		    1    0       1.567332      1.500734      1.500734    -0.000000   -0.000000   -0.000000
		    2    1       9.082306      3.001469      0.000000    -0.000004    0.000000   -0.000000
		    3    1       3.456348      0.000000      3.001469     0.000004   -0.000000    0.000000
		    4    1       6.269327      0.000000      0.000000    -0.000000   -0.000000    0.000000
		    5    2       4.803636      1.500734      1.500734    -0.000009    0.000000   -0.000000
		    6    2       7.735018      1.500734      1.500734     0.000009   -0.000000    0.000000
Energy
	   -44.38808914396934
PlusStress:  xx          yy          zz          yz          xz          xy
       -0.00008     0.00025     0.00025     0.00000    -0.00000    -0.00000
Feature   mindist 2.514
END_CFG

BEGIN_CFG
Size
   6
SuperCell
        9.403991     -0.000000     -0.000000
       -0.000000      3.001469     -0.000000
       -0.000000     -0.000000      3.001469
AtomData:  id type       cartes_x      cartes_y      cartes_z           fx          fy          fz
		    1    0       9.403991     -0.000000      0.000000     0.000000   -0.000000   -0.000000
		    2    1       1.889016      1.500734      1.500734     0.000004   -0.000000    0.000000
		    3    1       4.701995      1.500734      1.500734     0.000000   -0.000000    0.000000
		    4    1       7.514974      1.500734      1.500734    -0.000004    0.000000    0.000000
		    5    2       3.236304      3.001469      0.000000    -0.000009    0.000000   -0.000000
		    6    2       6.167686      0.000000      0.000000     0.000009   -0.000000    0.000000
Energy
	   -44.388089143969324
PlusStress:  xx          yy          zz          yz          xz          xy
       -0.00008     0.00025     0.00025     0.00000     0.00000     0.00000
Feature   mindist 2.514
END_CFG

BEGIN_CFG
Size
   6
SuperCell
       10.585865      0.000000     -0.000000
        0.000000      3.177775      0.000000
       -0.000000      0.000000      3.177775
AtomData:  id type       cartes_x      cartes_y      cartes_z           fx          fy          fz
		    1    0      10.436259      3.177775      0.000000    -0.000022    0.000000   -0.000000
		    2    0       1.913917      1.588887      1.588887     0.000022   -0.000000   -0.000000
		    3    0       5.143326      1.588887      1.588887    -0.000022   -0.000000   -0.000000
		    4    0       7.206850      3.177775      0.000000     0.000022    0.000000    0.000000
		    5    1       3.528622      3.177775      3.177775    -0.000000    0.000000    0.000000
		    6    1       8.821554      1.588887      1.588887     0.000000   -0.000000    0.000000
Energy
	   -52.4344352473699
PlusStress:  xx          yy          zz          yz          xz          xy
       -0.00116     0.00112     0.00112     0.00000    -0.00000    -0.00000
Feature   mindist 2.767
END_CFG

BEGIN_CFG
Size
   6
SuperCell
       10.159308      0.000000     -0.000000
        0.000000      3.002109      0.000000
       -0.000000      0.000000      3.002109
AtomData:  id type       cartes_x      cartes_y      cartes_z           fx          fy          fz
		    1    0       8.378155      1.501054      1.501054     0.000355    0.000000   -0.000000
		    2    1       1.811687      1.501054      1.501054     0.000579   -0.000000   -0.000000
		    3    1       6.548257      0.000000      3.002109    -0.000493   -0.000000    0.000000
		    4    2       0.251277      0.000000      0.000000    -0.000683    0.000000   -0.000000
		    5    2       3.314537      0.000000      3.002109    -0.000631   -0.000000    0.000000
		    6    2       5.094358      1.501054      1.501054     0.000872    0.000000   -0.000000
Energy
	   -46.108780221702915
PlusStress:  xx          yy          zz          yz          xz          xy
        0.00080    -0.00077    -0.00077    -0.00000     0.00000     0.00000
Feature   mindist 2.573
END_CFG

BEGIN_CFG
Size
   6
SuperCell
       10.585865     -0.000000     -0.000000
       -0.000000      3.177775     -0.000000
       -0.000000     -0.000000      3.177775
AtomData:  id type       cartes_x      cartes_y      cartes_z           fx          fy          fz
		    1    0       0.149607      3.177775      3.177775     0.000022    0.000000    0.000000
		    2    0       3.379015      3.177775      3.177775    -0.000022    0.000000    0.000000
		    3    0       5.442539      1.588887      1.588887     0.000022   -0.000000   -0.000000
		    4    0       8.671948      1.588887      1.588887    -0.000022   -0.000000    0.000000
		    5    1       1.764311      1.588887      1.588887    -0.000000   -0.000000   -0.000000
		    6    1       7.057243      3.177775      0.000000     0.000000    0.000000    0.000000
Energy
	   -52.434435247369876
PlusStress:  xx          yy          zz          yz          xz          xy
       -0.00116     0.00112     0.00112     0.00000    -0.00000     0.00000
Feature   mindist 2.767
END_CFG

BEGIN_CFG
Size
   6
SuperCell
       10.585865     -0.000000      0.000000
       -0.000000      3.177775     -0.000000
       -0.000000     -0.000000      3.177775
AtomData:  id type       cartes_x      cartes_y      cartes_z           fx          fy          fz
		    1    0       1.614704      1.588887      1.588887    -0.000022    0.000000   -0.000000
		    2    0       3.678228      0.000000      3.177775     0.000022   -0.000000    0.000000
		    3    0       6.907637      0.000000      0.000000    -0.000022   -0.000000   -0.000000
		    4    0       8.971161      1.588887      1.588887     0.000022   -0.000000    0.000000
		    5    1      -0.000000      0.000000      3.177775    -0.000000   -0.000000    0.000000
		    6    1       5.292933      1.588887      1.588887     0.000000    0.000000    0.000000
Energy
	   -52.43443524736991
PlusStress:  xx          yy          zz          yz          xz          xy
       -0.00116     0.00112     0.00112    -0.00000     0.00000     0.00000
Feature   mindist 2.767
END_CFG

BEGIN_CFG
Size
   6
SuperCell
       11.977181     -0.000000     -0.000000
        0.000000      3.176740      0.000000
       -0.000000      0.000000      3.176740
AtomData:  id type       cartes_x      cartes_y      cartes_z           fx          fy          fz
		    1    0       0.000000      0.000000      0.000000    -0.000000   -0.000000   -0.000000
		    2    0       2.245131      1.588370      1.588370    -0.000779    0.000000    0.000000
		    3    0       4.380824      3.176740      3.176740     0.000048    0.000000    0.000000
		    4    0       7.596357      0.000000      3.176740    -0.000048   -0.000000    0.000000
		    5    0       9.732050      1.588370      1.588370     0.000779    0.000000    0.000000
		    6    1       5.988590      1.588370      1.588370     0.000000   -0.000000   -0.000000
Energy
	   -55.845480414369774
PlusStress:  xx          yy          zz          yz          xz          xy
       -0.00067     0.00005     0.00005    -0.00000    -0.00000     0.00000
Feature   mindist 2.762
END_CFG

BEGIN_CFG
Size
   6
SuperCell
        8.921272     -0.000000     -0.000000
       -0.000000      2.973757      0.000000
        0.000000      0.000000      2.973757
AtomData:  id type       cartes_x      cartes_y      cartes_z           fx          fy          fz
		    1    1       8.921272      0.000000      0.000000     0.000000    0.000000   -0.000000
		    2    1       2.973757      0.000000      0.000000     0.000000   -0.000000    0.000000
		    3    1       5.947515      0.000000      0.000000     0.000000    0.000000   -0.000000
		    4    2       1.486879      1.486879      1.486879    -0.000000    0.000000    0.000000
		    5    2       4.460636      1.486879      1.486879     0.000000   -0.000000   -0.000000
		    6    2       7.434394      1.486879      1.486879    -0.000000   -0.000000    0.000000
Energy
	   -42.11064776236654
PlusStress:  xx          yy          zz          yz          xz          xy
        0.00029     0.00029     0.00029     0.00000    -0.00000    -0.00000
Feature   mindist 2.575
END_CFG

BEGIN_CFG
Size
   6
SuperCell
       10.159308      0.000000     -0.000000
        0.000000      3.002109     -0.000000
       -0.000000     -0.000000      3.002109
AtomData:  id type       cartes_x      cartes_y      cartes_z           fx          fy          fz
		    1    0       5.167589      1.501054      1.501054    -0.000355   -0.000000    0.000000
		    2    1       1.574749      1.501054      1.501054    -0.000579   -0.000000   -0.000000
		    3    1       6.997487      3.002109      0.000000     0.000493    0.000000   -0.000000
		    4    2       0.071899      3.002109      0.000000     0.000631    0.000000    0.000000
		    5    2       3.135159      0.000000      3.002109     0.000683   -0.000000    0.000000
		    6    2       8.451386      1.501054      1.501054    -0.000872   -0.000000    0.000000
Energy
	   -46.10878022170291
PlusStress:  xx          yy          zz          yz          xz          xy
        0.00080    -0.00077    -0.00077    -0.00000    -0.00000     0.00000
Feature   mindist 2.573
END_CFG

BEGIN_CFG
Size
   6
SuperCell
       10.159308     -0.000000     -0.000000
       -0.000000      3.002109     -0.000000
       -0.000000      0.000000      3.002109
AtomData:  id type       cartes_x      cartes_y      cartes_z           fx          fy          fz
		    1    0       3.298501      0.000000      0.000000     0.000355   -0.000000   -0.000000
		    2    1       1.468603      1.501054      1.501054    -0.000493    0.000000    0.000000
		    3    1       6.891341     -0.000000      0.000000     0.000579   -0.000000   -0.000000
		    4    2       0.014704      0.000000      0.000000     0.000872   -0.000000   -0.000000
		    5    2       5.330931      1.501054      1.501054    -0.000683   -0.000000   -0.000000
		    6    2       8.394191      1.501054      1.501054    -0.000631    0.000000    0.000000
Energy
	   -46.10878022170293
PlusStress:  xx          yy          zz          yz          xz          xy
        0.00080    -0.00077    -0.00077     0.00000    -0.00000     0.00000
Feature   mindist 2.573
END_CFG

BEGIN_CFG
Size
   6
SuperCell
        8.921272      0.000000     -0.000000
        0.000000      2.973757     -0.000000
        0.000000     -0.000000      2.973757
AtomData:  id type       cartes_x      cartes_y      cartes_z           fx          fy          fz
		    1    1       1.486879      1.486879      1.486879     0.000000    0.000000   -0.000000
		    2    1       4.460636      1.486879      1.486879     0.000000   -0.000000   -0.000000
		    3    1       7.434394      1.486879      1.486879     0.000000   -0.000000   -0.000000
		    4    2       8.921272      0.000000      0.000000     0.000000   -0.000000   -0.000000
		    5    2       2.973757      0.000000      0.000000    -0.000000   -0.000000    0.000000
		    6    2       5.947515      0.000000      0.000000    -0.000000    0.000000    0.000000
Energy
	   -42.11064776236653
PlusStress:  xx          yy          zz          yz          xz          xy
        0.00029     0.00029     0.00029    -0.00000     0.00000     0.00000
Feature   mindist 2.575
END_CFG

BEGIN_CFG
Size
   6
SuperCell
       10.159308     -0.000000     -0.000000
       -0.000000      3.002109      0.000000
       -0.000000      0.000000      3.002109
AtomData:  id type       cartes_x      cartes_y      cartes_z           fx          fy          fz
		    1    0       0.087935      3.002109      3.002109    -0.000355    0.000000    0.000000
		    2    1       1.917833      1.501054      1.501054     0.000493   -0.000000   -0.000000
		    3    1       6.654404      3.002109      3.002109    -0.000579    0.000000    0.000000
		    4    2       3.371732      3.002109      3.002109    -0.000872    0.000000    0.000000
		    5    2       5.151553      1.501054      1.501054     0.000631   -0.000000   -0.000000
		    6    2       8.214813      1.501054      1.501054     0.000683    0.000000    0.000000
Energy
	   -46.10878022170294
PlusStress:  xx          yy          zz          yz          xz          xy
        0.00080    -0.00077    -0.00077     0.00000    -0.00000     0.00000
Feature   mindist 2.573
END_CFG

BEGIN_CFG
Size
   6
SuperCell
       10.159308      0.000000      0.000000
        0.000000      3.002109     -0.000000
        0.000000      0.000000      3.002109
AtomData:  id type       cartes_x      cartes_y      cartes_z           fx          fy          fz
		    1    0      10.071373      3.002109      0.000000     0.000355    0.000000   -0.000000
		    2    1       3.504905      3.002109      0.000000     0.000579    0.000000    0.000000
		    3    1       8.241475      1.501054      1.501054    -0.000493   -0.000000   -0.000000
		    4    2       1.944495      1.501054      1.501054    -0.000683    0.000000    0.000000
		    5    2       5.007755      1.501054      1.501054    -0.000631   -0.000000    0.000000
		    6    2       6.787576      3.002109     -0.000000     0.000872    0.000000    0.000000
Energy
	   -46.108780221702894
PlusStress:  xx          yy          zz          yz          xz          xy
        0.00080    -0.00077    -0.00077    -0.00000     0.00000    -0.00000
Feature   mindist 2.573
END_CFG

BEGIN_CFG
Size
   6
SuperCell
       10.159308     -0.000000      0.000000
       -0.000000      3.002109      0.000000
        0.000000      0.000000      3.002109
AtomData:  id type       cartes_x      cartes_y      cartes_z           fx          fy          fz
		    1    0       6.860808      3.002109      0.000000    -0.000355    0.000000   -0.000000
		    2    1       3.267967      3.002109      0.000000    -0.000579    0.000000   -0.000000
		    3    1       8.690705      1.501054      1.501054     0.000493   -0.000000    0.000000
		    4    2      10.144604      3.002109      0.000000    -0.000872    0.000000   -0.000000
		    5    2       1.765117      1.501054      1.501054     0.000631   -0.000000    0.000000
		    6    2       4.828377      1.501054      1.501054     0.000683    0.000000   -0.000000
Energy
	   -46.10878022170292
PlusStress:  xx          yy          zz          yz          xz          xy