BEGIN_CFG
Size
   12
SuperCell
        9.810114     -0.671435      0.000000
       -1.712442      4.703979     -0.000000
        0.000001     -0.000001      4.111401
AtomData:  id type       cartes_x      cartes_y      cartes_z           fx          fy          fz
		    1    0       0.256566      0.168988      4.111398    -0.000273   -0.000196    0.000044
		    2    0       3.472838      0.315628      0.000000     0.000274    0.000548   -0.000004
		    3    0       0.145649      2.804241      2.055704    -0.000182   -0.000654   -0.000040
		    4    0       3.375872      3.016209      2.055701     0.000010   -0.000016   -0.000010
		    5    0       5.817164      2.443612      0.000006     0.000029   -0.000410   -0.000075
		    6    1       1.858159      0.771374      2.055711    -0.000057    0.000379   -0.000127
		    7    1       5.075624      0.954382      2.055686    -0.000170    0.000151    0.000187
		    8    1       6.083900     -0.211113      0.000010     0.000127   -0.000063   -0.000133
		    9    1       8.312266      1.486278      4.111399     0.000453    0.000199    0.000026
		   10    1       1.799824      2.362036      4.111391    -0.000203   -0.000057    0.000122
		   11    1       7.401523      2.823740      2.055701     0.000038    0.000271    0.000000
		   12    2       7.555317      0.203914      2.055700    -0.000046   -0.000152    0.000011
Energy
	   -95.86126529350236
PlusStress:  xx          yy          zz          yz          xz          xy
        0.00199     0.00146     0.00356     0.00005     0.00008    -0.00005
Feature   mindist 2.508
END_CFG

BEGIN_CFG
Size
   12
SuperCell
        9.794348     -0.702035     -0.000000
       -1.839545      4.622492      0.000000
       -0.000004      0.000002      4.110629
AtomData:  id type       cartes_x      cartes_y      cartes_z           fx          fy          fz
		    1    0       4.680332      1.018556      2.055323     0.000179   -0.000170   -0.000104
		    2    0       4.532571      3.655775      4.110626     0.000001    0.000522    0.000047
		    3    0       7.871281      1.197012      2.055329     0.000216   -0.000278   -0.000189
		    4    0       2.171778      1.508796      0.000013    -0.000071    0.000375   -0.000152
		    5    1       0.538778      1.052084      2.055302    -0.000257   -0.000194    0.000148
		    6    1       1.914999      4.165785      0.000023    -0.000114   -0.000152   -0.000267
		    7    1      -0.316018      2.465047      4.110623     0.000176    0.000169    0.000079
		    8    1       2.927273      3.010335      2.055288     0.000101    0.000081    0.000323
		    9    1       6.245156      1.693838      4.110580     0.000056   -0.000222    0.000610
		   10    1       6.233384      3.240213      2.055360    -0.000283    0.000054   -0.000570
		   11    2       7.739630      3.719375      4.110625    -0.000281   -0.000040    0.000052
		   12    2       0.430311      3.729678      2.055312     0.000276   -0.000145    0.000024
Energy
	   -93.48405075789547
PlusStress:  xx          yy          zz          yz          xz          xy
       -0.00106    -0.00126    -0.00163    -0.00018    -0.00029     0.00022
Feature   mindist 2.517
END_CFG

BEGIN_CFG
Size
   12
SuperCell
        8.713327      0.220340      0.000000
        0.636534      4.916891     -0.000000
        0.000000     -0.000000      4.125249
AtomData:  id type       cartes_x      cartes_y      cartes_z           fx          fy          fz
		    1    0       1.670197      0.071605      2.062626     0.000001   -0.000043   -0.000026
		    2    0       5.677889      1.326373      4.125248     0.000008   -0.000126    0.000015
		    3    0       5.214435      3.844081      2.062627     0.000003   -0.000057   -0.000034
		    4    1       0.842227      4.090828      4.125247    -0.000146    0.000140    0.000027
		    5    1       3.980150      4.926821      4.125243     0.000065    0.000032    0.000076
		    6    1       3.860508      1.522445      2.062628     0.000752   -0.000428   -0.000057
		    7    1       7.267850      2.153431      2.062627     0.000024   -0.000122   -0.000040
		    8    1       1.278672      2.598303      2.062626    -0.000392    0.000766   -0.000025
		    9    1       6.909430      3.682888      4.125245     0.000036    0.000067    0.000045
		   10    2       8.699092      1.935539      4.125247    -0.000078   -0.000321    0.000016
		   11    2       2.866910      2.547391      4.125247    -0.000198   -0.000583    0.000015
		   12    2       8.150076      4.582125      2.062625    -0.000074    0.000674   -0.000012
Energy
	   -91.26737483497222
PlusStress:  xx          yy          zz          yz          xz          xy
       -0.00006     0.00119     0.00279    -0.00196     0.00000    -0.00002
Feature   mindist 2.5
END_CFG

BEGIN_CFG
Size
   12
SuperCell
        9.560581     -0.612110     -0.000000
       -1.670250      4.689638     -0.000000
       -0.000000     -0.000000      4.128172
AtomData:  id type       cartes_x      cartes_y      cartes_z           fx          fy          fz
		    1    0       7.819182      3.558388      0.000003    -0.000154   -0.000241   -0.000048
		    2    0       0.603226      3.531701      2.064083     0.000061    0.000199    0.000045
		    3    0       3.702736      3.872766      2.064084     0.000065   -0.000335    0.000030
		    4    0       5.224936      1.777966      0.000002    -0.000215   -0.000615   -0.000028
		    5    1       0.736856      0.960084      2.064082     0.000241    0.000145    0.000051
		    6    1       2.055806      4.250656      0.000005    -0.000593   -0.000333   -0.000075
		    7    1       3.537270      1.166657      2.064083    -0.000194    0.000535    0.000048
		    8    1       6.999611     -0.208685      0.000004     0.000572    0.000000   -0.000053
		    9    1      -0.344775      2.076313      0.000003     0.000137   -0.000189   -0.000048
		   10    1       6.242157      3.138842      2.064081    -0.000068    0.000339    0.000077
		   11    2       7.760261      1.066139      2.064085     0.000074    0.000038    0.000015
		   12    2       2.169593      1.619158      0.000001     0.000074    0.000456   -0.000015
Energy
	   -93.49522174349202
PlusStress:  xx          yy          zz          yz          xz          xy
       -0.00078     0.00041    -0.00241    -0.00032     0.00001     0.00001
Feature   mindist 2.517
END_CFG

BEGIN_CFG
Size
   12
SuperCell
        9.810110     -0.671435     -0.000000
       -1.712442      4.703979      0.000000
       -0.000001      0.000001      4.111402
AtomData:  id type       cartes_x      cartes_y      cartes_z           fx          fy          fz
		    1    0       7.964360      3.493296      0.000006    -0.000031    0.000421   -0.000073
		    2    0       0.595541      3.592134      2.055703    -0.000004    0.000012   -0.000019
		    3    0       2.211015      1.588738      4.111402    -0.000277   -0.000548    0.000003
		    4    0       3.825762      3.804107      2.055705     0.000180    0.000648   -0.000052
		    5    0       5.427286      1.735382      4.111397     0.000270    0.000185    0.000060
		    6    1       0.608231      0.949981      2.055685     0.000167   -0.000146    0.000198
		    7    1       2.171588      4.246310      4.111390     0.000204    0.000056    0.000154
		    8    1       3.825692      1.132991      2.055714     0.000057   -0.000369   -0.000162
		    9    1       7.181700     -0.253344      4.111399    -0.000451   -0.000206    0.000041
		   10    1      -0.400046      2.115475      0.000011    -0.000126    0.000070   -0.000140
		   11    1       6.380002      3.113173      2.055703    -0.000041   -0.000276   -0.000020
		   12    2       7.938648      1.029019      2.055700     0.000051    0.000153    0.000009
Energy
	   -95.86126529277016
PlusStress:  xx          yy          zz          yz          xz          xy
        0.00202     0.00144     0.00353     0.00007    -0.00010     0.00006
Feature   mindist 2.508
END_CFG

BEGIN_CFG
Size
   12
SuperCell
        8.714024      0.186408      0.000000
        0.655287      4.914441     -0.000000
        0.000000     -0.000000      4.125259
AtomData:  id type       cartes_x      cartes_y      cartes_z           fx          fy          fz
		    1    0       3.177398      0.505800      0.000001     0.000164   -0.000554   -0.000012
		    2    0       6.735991      4.264370      0.000001    -0.000135   -0.000311   -0.000017
		    3    0       7.189854      1.744857      2.062629     0.000003    0.000473    0.000007
		    4    1       4.850519      0.437376      2.062627     0.000252    0.000144    0.000035
		    5    1       8.782874      2.565882      0.000001     0.000069   -0.000186   -0.000019
		    6    1       2.364786      4.528233      2.062629     0.000209   -0.000148    0.000012
		    7    1       2.795287      3.034062      0.000001     0.000111   -0.000170   -0.000011
		    8    1       5.373467      1.947851      0.000002    -0.000200   -0.000022   -0.000025
		    9    1       8.430370      4.096735      2.062628    -0.000196   -0.000269    0.000023
		   10    2       0.960362      4.804881      0.000000    -0.000041    0.000087   -0.000006
		   11    2       1.499215      2.155699      2.062629    -0.000278    0.000544    0.000007
		   12    2       4.383385      2.976572      2.062629     0.000043    0.000412    0.000006
Energy
	   -91.26737512577739
PlusStress:  xx          yy          zz          yz          xz          xy
        0.00017    -0.00101     0.00052     0.00038     0.00000    -0.00001
Feature   mindist 2.5
END_CFG

BEGIN_CFG
Size
   12
SuperCell
        7.974318     -0.226668      0.000000
       -0.611045      5.078768      0.000000
       -0.000000      0.000000      4.188509
AtomData:  id type       cartes_x      cartes_y      cartes_z           fx          fy          fz
		    1    0       6.460911      0.175916      2.094253    -0.000036    0.000175    0.000019
		    2    0       5.144139      2.446575      0.000009     0.000298    0.000019   -0.000075
		    3    1       3.965694      1.132176      2.094247    -0.000164   -0.000166    0.000097
		    4    1       4.240643      4.864578      4.188507     0.000336    0.000426    0.000002
		    5    1       7.639515      1.490469      0.000001    -0.000141   -0.000033   -0.000023
		    6    1       1.039259      4.642958      2.094250     0.000265    0.000055    0.000056
		    7    1       1.980308      3.285237      4.188498    -0.000211   -0.000245    0.000100
		    8    1       6.753279      2.836679      2.094245    -0.000213   -0.000337    0.000106
		    9    2      -0.346494      4.299941      0.000009     0.000002    0.000224   -0.000095
		   10    2       1.046427      2.029568      2.094256    -0.000058   -0.000342   -0.000017
		   11    2       2.584326      0.819830      0.000008    -0.000154    0.000237   -0.000090
		   12    2       3.366110      3.628055      2.094261     0.000076   -0.000012   -0.000079
Energy
	   -88.91272162180823
PlusStress:  xx          yy          zz          yz          xz          xy
       -0.00167     0.00014    -0.00067    -0.00035    -0.00004    -0.00001
Feature   mindist 2.492
END_CFG

BEGIN_CFG
Size
   12
SuperCell
        7.974287     -0.226661      0.000000
       -0.611022      5.078777     -0.000000
        0.000000     -0.000000      4.188511
AtomData:  id type       cartes_x      cartes_y      cartes_z           fx          fy          fz
		    1    0       3.662319      3.754053      2.094257     0.000341   -0.000024   -0.000004
		    2    0       4.979083      1.483404      0.000003     0.000028    0.000185   -0.000035
		    3    1       0.168488      0.871658      0.000000     0.000287    0.000075    0.000003
		    4    1       3.369862      1.093275      2.094250     0.000384    0.000487    0.000052
		    5    1       5.271453      4.144171      4.188510    -0.000207   -0.000363    0.000001
		    6    1       0.498523      4.592704      2.094253    -0.000252   -0.000179    0.000028
		    7    1       2.483881      2.439642      0.000001    -0.000212   -0.000149   -0.000017
		    8    1       6.157692      2.797961      2.094250    -0.000142   -0.000023    0.000056
		    9    2       1.102509      2.127300      2.094255    -0.000122    0.000209    0.000007
		   10    2       1.884319      4.935534      0.000001     0.000035   -0.000000   -0.000026
		   11    2       6.757029      0.301991      2.094257    -0.000025    0.000162   -0.000014
		   12    2       7.538921      3.110393      0.000004    -0.000115   -0.000380   -0.000052
Energy
	   -88.91272161720683
PlusStress:  xx          yy          zz          yz          xz          xy
       -0.00122     0.00037    -0.00041    -0.00053    -0.00000    -0.00000
Feature   mindist 2.492
END_CFG

BEGIN_CFG
Size
   12
SuperCell
        7.058764      0.144529      0.000001
        0.584845      5.228497      0.000001
        0.000001      0.000003      4.207318
AtomData:  id type       cartes_x      cartes_y      cartes_z           fx          fy          fz
		    1    0       0.915731      5.012763      4.207307     0.000442   -0.000135    0.000176
		    2    0       3.734525      5.080860      2.103667     0.000217   -0.000074   -0.000125
		    3    1       0.965190      1.181081      2.103657     0.000131    0.000100    0.000029
		    4    1       2.480480      1.342734      0.000014    -0.000175   -0.000076   -0.000129
		    5    1       3.770464      2.380028      2.103648    -0.000231    0.000149    0.000134
		    6    1       5.451135      4.466328      4.207305     0.000263   -0.000157    0.000151
		    7    1       5.673083      0.543209      2.103674    -0.000443   -0.000010   -0.000139
		    8    1       0.295132      2.485095      0.000007    -0.000006   -0.000284   -0.000082
		    9    1       1.585044      3.522326      2.103661    -0.000122    0.000080   -0.000070
		   10    1       3.100228      3.683991      4.207307     0.000230   -0.000202    0.000135
		   11    2       4.893225      1.828536      0.000006    -0.000418    0.000111   -0.000079
		   12    2       6.231085      3.180947      2.103664     0.000111    0.000498   -0.000001
Energy
	   -84.85052392375431
PlusStress:  xx          yy          zz          yz          xz          xy
       -0.00102    -0.00014    -0.00026     0.00129    -0.00031    -0.00031
Feature   mindist 2.422
END_CFG

BEGIN_CFG
Size
   12
SuperCell
        7.974313      0.226666     -0.000000
        0.611037      5.078769      0.000000
       -0.000000      0.000000      4.188508
AtomData:  id type       cartes_x      cartes_y      cartes_z           fx          fy          fz
		    1    0       7.840864      0.284971      0.000007    -0.000290    0.000016   -0.000053
		    2    0       7.135133      3.093083      2.094254     0.000022    0.000176    0.000001
		    3    1       3.030377      0.896958      4.188496     0.000215   -0.000216    0.000114
		    4    1       3.971425      2.254682      2.094254    -0.000266    0.000064    0.000010
		    5    1       5.956530      4.407634      4.188507     0.000128   -0.000027   -0.000001
		    6    1       6.231725      0.675078      2.094248     0.000211   -0.000347    0.000069
		    7    1       0.770040      2.476307      4.188504    -0.000338    0.000434    0.000022
		    8    1       1.656033      3.822673      2.094247     0.000180   -0.000162    0.000083
		    9    2       1.644578      1.239786      2.094261    -0.000088   -0.000023   -0.000093
		   10    2       3.037401      3.510325      0.000007     0.000149    0.000219   -0.000077
		   11    2       4.575297      4.720064      2.094256     0.000072   -0.000343   -0.000028
		   12    2       5.357177      1.911671      0.000005     0.000006    0.000209   -0.000048
Energy
	   -88.91272162494556
PlusStress:  xx          yy          zz          yz          xz          xy
       -0.00151     0.00021    -0.00053     0.00044    -0.00003     0.00002
Feature   mindist 2.492
END_CFG

BEGIN_CFG
Size
   12
SuperCell
        8.684712     -0.131594      0.000363
       -0.341549      4.931727      0.000227
       -0.000187     -0.000141      4.111712
AtomData:  id type       cartes_x      cartes_y      cartes_z           fx          fy          fz
		    1    0       1.810564      0.372146      2.055951    -0.000097    0.000136    0.000015
		    2    0       8.196860      1.520518      0.000426     0.000220    0.000160    0.000017
		    3    0       7.225591      3.934242      2.056354    -0.000258    0.000156    0.000063
		    4    1       0.274840      4.153592      0.000219     0.000143   -0.000198    0.000009
		    5    1       3.478553      0.487391      0.000200    -0.000101   -0.000071   -0.000330
		    6    1       3.778300      2.059241      2.056119    -0.000007    0.000175   -0.000007
		    7    1       5.767610      4.814814      0.000487    -0.000271   -0.000016   -0.000096
		    8    1       6.415599      1.423609      2.056205     0.000201    0.000341   -0.000109
		    9    1       0.893079      2.759693      2.056048    -0.000256   -0.000252   -0.000070
		   10    2       2.493283      2.924436      4.111957    -0.000008   -0.000405    0.000037
		   11    2       4.315955      4.459501      2.056226     0.000299    0.000069    0.000310
		   12    2       5.237034      2.356780      4.112029     0.000136   -0.000096    0.000161
Energy
	   -91.22461559501558
PlusStress:  xx          yy          zz          yz          xz          xy
       -0.00075     0.00140     0.00003     0.00043    -0.00122     0.00037
Feature   mindist 2.46
END_CFG

BEGIN_CFG
Size
   12
SuperCell
        8.566038     -0.160205     -0.000004
       -0.492249      4.967096      0.000007
        0.000009     -0.000002      4.131628
AtomData:  id type       cartes_x      cartes_y      cartes_z           fx          fy          fz
		    1    0       8.095720      1.574836      4.131624    -0.000061    0.000165    0.000023
		    2    0       3.992374      4.450907      2.065831     0.000146   -0.000031   -0.000128
		    3    0       7.071311      3.935324      2.065833    -0.000140   -0.000363   -0.000173
		    4    1       0.270475      4.307756      0.000012    -0.000069   -0.000112   -0.000083
		    5    1       3.187481      0.472327      0.000009     0.000165    0.000022   -0.000079
		    6    1       3.604318      1.982952      2.065789     0.000222    0.000051    0.000229
		    7    1       5.621101      4.759453      4.131593    -0.000205    0.000434    0.000441
		    8    1       6.358088      1.380866      2.065819    -0.000208   -0.000082   -0.000100
		    9    1       0.923015      2.889488      2.065785     0.000012   -0.000030    0.000343
		   10    2       1.630071      0.497539      2.065820     0.000184   -0.000065   -0.000054
		   11    2       2.315867      2.848122      0.000024     0.000129   -0.000331   -0.000221
		   12    2       5.126828      2.225311      0.000021    -0.000176    0.000343   -0.000199
Energy
	   -91.21058135649074
PlusStress:  xx          yy          zz          yz          xz          xy
       -0.00041    -0.00217    -0.00047     0.00014    -0.00002    -0.00032
Feature   mindist 2.471
END_CFG

BEGIN_CFG
Size
   12
SuperCell
        8.566052     -0.160239      0.000011
       -0.492249      4.967106     -0.000014
       -0.000018      0.000010      4.131622
AtomData:  id type       cartes_x      cartes_y      cartes_z           fx          fy          fz
		    1    0       3.079563      0.695065      0.000004     0.000068   -0.000129   -0.000048
		    2    0       3.611681      3.301708      2.065821     0.000341    0.000290   -0.000181
		    3    0       6.690627      2.786122      2.065833     0.000013    0.000053   -0.000193
		    4    1       4.817188      0.889079      2.065807     0.000111   -0.000043    0.000013
		    5    1       7.570957      0.286975      2.065795    -0.000305   -0.000013    0.000223
		    6    1       7.987786      1.797615      0.000009    -0.000173   -0.000105    0.000030
		    7    1       1.193947      4.507729      2.065767    -0.000039    0.000076    0.000333
		    8    1       1.846482      3.089451      4.131598     0.000062    0.000258    0.000187
		    9    1       5.061872      2.477576      4.131585     0.000299   -0.000377    0.000400
		   10    2      -0.198861      4.549165      0.000018    -0.000263    0.000342   -0.000313
		   11    2       0.979156      1.932594      2.065831    -0.000248    0.000000   -0.000223
		   12    2       6.048450      0.044617      0.000029     0.000134   -0.000352   -0.000227
Energy
	   -91.21058132800991
PlusStress:  xx          yy          zz          yz          xz          xy
       -0.00029    -0.00279    -0.00034     0.00072     0.00006     0.00052
Feature   mindist 2.471
END_CFG

BEGIN_CFG
Size
   12
SuperCell
        7.294495      0.203395      0.000000
        0.805050      5.006150     -0.000000
        0.000006     -0.000000      4.191946
AtomData:  id type       cartes_x      cartes_y      cartes_z           fx          fy          fz
		    1    0       7.435896      2.016544      0.000012     0.000083   -0.000016   -0.000186
		    2    0       6.655693      4.635662      2.095992     0.000148   -0.000298   -0.000307
		    3    1       1.123373      4.238508      4.191939    -0.000406    0.000318    0.000101
		    4    1       2.673573      0.226637      0.000020     0.000168    0.000087   -0.000353
		    5    1       3.662376      1.308943      2.095977    -0.000264    0.000003   -0.000042
		    6    1       5.049635      1.022361      4.191925    -0.000149    0.000189    0.000320
		    7    1       5.966690      2.166598      2.095967     0.000333   -0.000389    0.000098
		    8    1       1.544542      2.802775      2.095974     0.000050    0.000104   -0.000021
		    9    1       4.080467      3.796456      2.095956     0.000108   -0.000162    0.000244
		   10    1       5.462196      3.588238      0.000006     0.000139   -0.000042   -0.000058
		   11    2       1.404326      0.263811      2.095958     0.000156    0.000058    0.000279
		   12    2       3.136003      2.687658      0.000006    -0.000366    0.000149   -0.000075
Energy
	   -84.83519221292612
PlusStress:  xx          yy          zz          yz          xz          xy
        0.00016     0.00063     0.00367     0.00015     0.00008    -0.00055
Feature   mindist 2.382
END_CFG

BEGIN_CFG
Size
   12
SuperCell
        8.420902     -0.201903      0.000000
       -0.519069      4.942653      0.000000
        0.000000      0.000000      4.122457
AtomData:  id type       cartes_x      cartes_y      cartes_z           fx          fy          fz
		    1    0       8.007471      1.132773      0.000009     0.000516    0.000052   -0.000121
		    2    0       6.917000      3.519621      2.061219    -0.000458    0.000839    0.000126
		    3    1       0.233021      3.886233      0.000017     0.000139   -0.000878   -0.000243
		    4    1       1.091820      0.470048      2.061212     0.000016   -0.000120    0.000239
		    5    1       6.240726      0.953084      2.061202    -0.000067   -0.000049    0.000353
		    6    1       2.886304      3.190739      0.000002     0.000257    0.000350   -0.000032
		    7    1       3.273358      4.712821      2.061225     0.000031   -0.000162    0.000051
		    8    1       5.607698      2.372426      0.000030    -0.000083   -0.000261   -0.000402
		    9    2       2.553451      0.704577      0.000005     0.000264    0.000770   -0.000064
		   10    2       4.120117      2.253321      2.061221    -0.000480   -0.000476    0.000109
		   11    2       4.795352      4.761710      0.000006     0.000212   -0.000053   -0.000074
		   12    2       1.425150      2.958478      2.061225    -0.000347   -0.000012    0.000057
Energy
	   -88.93634157089727
PlusStress:  xx          yy          zz          yz          xz          xy
       -0.00305     0.00043    -0.00361     0.00069    -0.00007     0.00001
Feature   mindist 2.472
END_CFG

BEGIN_CFG
Size
   12
SuperCell
        9.841145     -0.680002      0.000000
       -1.955091      4.581676      0.000000
        0.000001      0.000000      4.130110
AtomData:  id type       cartes_x      cartes_y      cartes_z           fx          fy          fz
		    1    0       1.262123      3.810423      0.000005    -0.000196   -0.000335   -0.000051
		    2    0       4.494967      1.350003      2.065050     0.000195    0.000335    0.000051
		    3    0       8.644663      1.187171      4.130105    -0.000033    0.000104    0.000058
		    4    0       6.953574      3.293254      2.065060     0.000033   -0.000104   -0.000058
		    5    1       0.722363      0.033630      4.130095    -0.000132   -0.000070    0.000165
		    6    1       6.989821      0.545121      2.065070     0.000132    0.000070   -0.000165
		    7    1      -0.288547      3.310076      2.065062     0.000118   -0.000028   -0.000085
		    8    1       2.831596      1.796204      0.000017    -0.000201    0.000059   -0.000185
		    9    1       2.925495      3.364223      2.065038     0.000201   -0.000059    0.000185
		   10    1       6.045639      1.850350      4.130103    -0.000118    0.000028    0.000085
		   11    2       1.379067      1.312162      2.065058     0.000025    0.000446   -0.000035
		   12    2       4.378025      3.848265      4.130106    -0.000025   -0.000447    0.000035
Energy
	   -93.49998687779798
PlusStress:  xx          yy          zz          yz          xz          xy
        0.00187     0.00082     0.00227     0.00005    -0.00001    -0.00008
Feature   mindist 2.516
END_CFG

BEGIN_CFG
Size
   12
SuperCell
        9.601690     -0.671750      0.002114
       -1.847694      4.585243      0.002163
       -0.001063     -0.002366      4.111838
AtomData:  id type       cartes_x      cartes_y      cartes_z           fx          fy          fz
		    1    0       0.920896      0.854869      2.056637     0.000243   -0.000724    0.000103
		    2    0       7.348020      0.016749      2.057848     0.000008    0.000437   -0.000060
		    3    0      -0.746063      2.843326      4.113276    -0.000455   -0.000868    0.000031
		    4    1       8.924193     -0.497156      4.113870    -0.000062    0.000346    0.000054
		    5    1       4.840949      0.674580      2.057575    -0.000183   -0.000011   -0.000063
		    6    1       3.949319      3.975668      4.115155     0.000131    0.000290    0.000131
		    7    1       0.898610      3.535657      2.058194     0.000434    0.000380    0.000041
		    8    1       1.848296      2.285065      0.001814    -0.000109    0.000355   -0.000125
		    9    1       7.130289      2.565315      2.059259    -0.000016    0.000089   -0.000083
		   10    2       3.398305      0.303563      4.112899    -0.000552    0.000110    0.000007
		   11    2       3.308363      2.598727      2.058302     0.000445   -0.000359   -0.000102
		   12    2       5.618145      2.013050      4.114455     0.000115   -0.000046    0.000065
Energy
	   -91.22461533424294
PlusStress:  xx          yy          zz          yz          xz          xy
        0.00221    -0.00262    -0.00403    -0.00048    -0.00008    -0.00025
Feature   mindist 2.46
END_CFG

BEGIN_CFG
Size
   12
SuperCell
        9.594982     -0.644359     -0.000000
       -1.790948      4.664274      0.000000
       -0.000001      0.000000      4.119558
AtomData:  id type       cartes_x      cartes_y      cartes_z           fx          fy          fz
		    1    0       1.388404      1.488431      2.059775    -0.000049   -0.000068    0.000057
		    2    0       1.333752      4.053409      0.000003    -0.000180   -0.000069   -0.000044
		    3    0       8.401159      1.413255      0.000005    -0.000078   -0.000525   -0.000065
		    4    0       6.697560      3.475391      2.059775     0.000089    0.000435    0.000050
		    5    1       0.517075      0.039403      0.000010     0.000188    0.000420   -0.000140
		    6    1       4.036019      0.863248      2.059775    -0.000168   -0.000503    0.000049
		    7    1       5.030624      3.908310      0.000005     0.000124    0.000394   -0.000067
		    8    1       6.757680      0.828669      2.059775    -0.000323   -0.000241    0.000055
		    9    1      -0.315977      3.462627      2.059768     0.000230    0.000758    0.000148
		   10    1       3.039660      2.089192      0.000003    -0.000191   -0.000014   -0.000044
		   11    2       3.651330      3.425062      2.059778     0.000553   -0.000494    0.000016
		   12    2       5.391442      1.404634      0.000001    -0.000195   -0.000094   -0.000014
Energy
	   -93.55821291669808
PlusStress:  xx          yy          zz          yz          xz          xy
        0.00052     0.00045    -0.00089    -0.00028    -0.00001     0.00004
Feature   mindist 2.449
END_CFG

BEGIN_CFG
Size
   12
SuperCell
        7.974313     -0.226667      0.000000
       -0.611039      5.078769      0.000000
        0.000000      0.000000      4.188508
AtomData:  id type       cartes_x      cartes_y      cartes_z           fx          fy          fz
		    1    0       1.144699      0.327031      2.094254    -0.000032    0.000175    0.000008
		    2    0      -0.172071      2.597689      0.000008     0.000290    0.000019   -0.000062
		    3    1       6.898752      4.789026      4.188505     0.000340    0.000427    0.000015
		    4    1       6.623797      1.056621      2.094246    -0.000173   -0.000161    0.000100
		    5    1       1.437067      2.987794      2.094247    -0.000210   -0.000341    0.000083
		    6    1       2.323300      1.641583      0.000000    -0.000131   -0.000032   -0.000013
		    7    1       3.697368      4.567401      2.094254     0.000265    0.000062    0.000015
		    8    1       4.638418      3.209678      4.188496    -0.000218   -0.000228    0.000127
		    9    2       2.311616      4.224388      0.000005    -0.000003    0.000217   -0.000056
		   10    2       3.704533      1.954013      2.094256    -0.000058   -0.000342   -0.000022